
     Program PWSCF v.7.0 starts on 12Dec2022 at  0:36:20 

     This program is part of the open-source Quantum ESPRESSO suite
     for quantum simulation of materials; please cite
         "P. Giannozzi et al., J. Phys.:Condens. Matter 21 395502 (2009);
         "P. Giannozzi et al., J. Phys.:Condens. Matter 29 465901 (2017);
         "P. Giannozzi et al., J. Chem. Phys. 152 154105 (2020);
          URL http://www.quantum-espresso.org", 
     in publications or presentations arising from this work. More details at
     http://www.quantum-espresso.org/quote

     Parallel version (MPI & OpenMP), running on      64 processor cores
     Number of MPI processes:                64
     Threads/MPI process:                     1

     MPI processes distributed on     1 nodes
     R & G space division:  proc/nbgrp/npool/nimage =      64
     134612 MiB available memory on the printing compute node when the environment starts
 
     Waiting for input...
     Reading input from standard input

     Current dimensions of program PWSCF are:
     Max number of different atomic species (ntypx) = 10
     Max number of k-points (npk) =  40000
     Max angular momentum in pseudopotentials (lmaxx) =  4

     Subspace diagonalization in iterative solution of the eigenvalue problem:
     one sub-group per band group will be used
     ELPA distributed-memory algorithm (size of sub-group:  8*  8 procs)

 
     Parallelization info
     --------------------
     sticks:   dense  smooth     PW     G-vecs:    dense   smooth      PW
     Min         194     194     51                10276    10276    1405
     Max         195     195     52                10280    10280    1408
     Sum       12427   12427   3295               657805   657805   90059
 
     Using Slab Decomposition
 


     bravais-lattice index     =            0
     lattice parameter (alat)  =      19.8043  a.u.
     unit-cell volume          =    3947.5486 (a.u.)^3
     number of atoms/cell      =           64
     number of atomic types    =            2
     number of electrons       =       352.00
     number of Kohn-Sham states=          176
     kinetic-energy cutoff     =     115.0000  Ry
     charge density cutoff     =     460.0000  Ry
     scf convergence threshold =      1.0E-06
     mixing beta               =       0.7000
     number of iterations used =            8  plain     mixing
     energy convergence thresh.=      1.0E-04
     force convergence thresh. =      1.0E-03
     press convergence thresh. =      5.0E-01
     Exchange-correlation= PBE
                           (   1   4   3   4   0   0   0)
     nstep                     =          100


     celldm(1)=  19.804330  celldm(2)=   0.000000  celldm(3)=   0.000000
     celldm(4)=   0.000000  celldm(5)=   0.000000  celldm(6)=   0.000000

     crystal axes: (cart. coord. in units of alat)
               a(1) = (   1.000000   0.000000   0.000000 )  
               a(2) = (  -0.500000   0.866031   0.000000 )  
               a(3) = (   0.000000   0.000000   0.586832 )  

     reciprocal axes: (cart. coord. in units 2 pi/alat)
               b(1) = (  1.000000  0.577347  0.000000 )  
               b(2) = (  0.000000  1.154694  0.000000 )  
               b(3) = (  0.000000  0.000000  1.704065 )  


     PseudoPot. # 1 for C  read from file:
     /jet/home/hzhao3/pseudopotential/SG15_ONCV_v1.0_upf/C_ONCV_PBE-1.0.upf
     MD5 check sum: dd1f23aaa54f950ea95e90232430301b
     Pseudo is Norm-conserving, Zval =  4.0
     Generated using ONCVPSP code by D. R. Hamann
     Using radial grid of  602 points,  4 beta functions with: 
                l(1) =   0
                l(2) =   0
                l(3) =   1
                l(4) =   1

     PseudoPot. # 2 for F  read from file:
     /jet/home/hzhao3/pseudopotential/SG15_ONCV_v1.0_upf/F_ONCV_PBE-1.0.upf
     MD5 check sum: 3dfc70f4a6577bbe4d25d3797c89696e
     Pseudo is Norm-conserving, Zval =  7.0
     Generated using ONCVPSP code by D. R. Hamann
     Using radial grid of  602 points,  4 beta functions with: 
                l(1) =   0
                l(2) =   0
                l(3) =   1
                l(4) =   1

     atomic species   valence    mass     pseudopotential
        C              4.00    12.01100     C ( 1.00)
        F              7.00    18.99840     F ( 1.00)

     No symmetry found



   Cartesian axes

     site n.     atom                  positions (alat units)
         1           C   tau(   1) = (  -0.0104125   0.1502346   0.3168893  )
         2           C   tau(   2) = (   0.1144875   0.0782675   0.2699427  )
         3           C   tau(   3) = (   0.2395875   0.1502346   0.2699427  )
         4           C   tau(   4) = (   0.3644875   0.0782675   0.3168893  )
         5           C   tau(   5) = (   0.4895875   0.1502346   0.3168893  )
         6           C   tau(   6) = (   0.6144875   0.0782675   0.3168893  )
         7           C   tau(   7) = (   0.7395875   0.1502346   0.2699427  )
         8           C   tau(   8) = (   0.8644875   0.0782675   0.2699427  )
         9           C   tau(   9) = (  -0.1354125   0.3667423   0.2699427  )
        10           C   tau(  10) = (  -0.0105125   0.2947751   0.3168893  )
        11           C   tau(  11) = (   0.1145875   0.3667423   0.3168893  )
        12           C   tau(  12) = (   0.2394875   0.2947751   0.3168893  )
        13           C   tau(  13) = (   0.3645875   0.3667423   0.2699427  )
        14           C   tau(  14) = (   0.4894875   0.2947751   0.3168893  )
        15           C   tau(  15) = (   0.6145875   0.3667423   0.3168893  )
        16           C   tau(  16) = (   0.7394875   0.2947751   0.3168893  )
        17           C   tau(  17) = (  -0.2604125   0.5832499   0.2699427  )
        18           C   tau(  18) = (  -0.1355125   0.5112828   0.2699427  )
        19           C   tau(  19) = (  -0.0104125   0.5832499   0.2699427  )
        20           C   tau(  20) = (   0.1144875   0.5112828   0.3168893  )
        21           C   tau(  21) = (   0.2395875   0.5832499   0.2699427  )
        22           C   tau(  22) = (   0.3644875   0.5112828   0.2699427  )
        23           C   tau(  23) = (   0.4895875   0.5832499   0.3168893  )
        24           C   tau(  24) = (   0.6144875   0.5112828   0.2699427  )
        25           C   tau(  25) = (  -0.3854125   0.7997575   0.2699427  )
        26           C   tau(  26) = (  -0.2605125   0.7277904   0.2699427  )
        27           C   tau(  27) = (  -0.1354125   0.7997575   0.3168893  )
        28           C   tau(  28) = (  -0.0105125   0.7277904   0.2699427  )
        29           C   tau(  29) = (   0.1145875   0.7997575   0.2699427  )
        30           C   tau(  30) = (   0.2394875   0.7277904   0.2699427  )
        31           C   tau(  31) = (   0.3645875   0.7997575   0.3168893  )
        32           C   tau(  32) = (   0.4894875   0.7277904   0.3168893  )
        33           F   tau(  33) = (  -0.0104125   0.1502346   0.4479962  )
        34           F   tau(  34) = (   0.1144875   0.0782675   0.1388359  )
        35           F   tau(  35) = (   0.2395875   0.1502346   0.1388359  )
        36           F   tau(  36) = (   0.3644875   0.0782675   0.4479962  )
        37           F   tau(  37) = (   0.4895875   0.1502346   0.4479962  )
        38           F   tau(  38) = (   0.6144875   0.0782675   0.4479962  )
        39           F   tau(  39) = (   0.7395875   0.1502346   0.1388359  )
        40           F   tau(  40) = (   0.8644875   0.0782675   0.1388359  )
        41           F   tau(  41) = (  -0.1354125   0.3667423   0.1388359  )
        42           F   tau(  42) = (  -0.0105125   0.2947751   0.4479962  )
        43           F   tau(  43) = (   0.1145875   0.3667423   0.4479962  )
        44           F   tau(  44) = (   0.2394875   0.2947751   0.4479962  )
        45           F   tau(  45) = (   0.3645875   0.3667423   0.1388359  )
        46           F   tau(  46) = (   0.4894875   0.2947751   0.4479962  )
        47           F   tau(  47) = (   0.6145875   0.3667423   0.4479962  )
        48           F   tau(  48) = (   0.7394875   0.2947751   0.4479962  )
        49           F   tau(  49) = (  -0.2604125   0.5832499   0.1388359  )
        50           F   tau(  50) = (  -0.1355125   0.5112828   0.1388359  )
        51           F   tau(  51) = (  -0.0104125   0.5832499   0.1388359  )
        52           F   tau(  52) = (   0.1144875   0.5112828   0.4479962  )
        53           F   tau(  53) = (   0.2395875   0.5832499   0.1388359  )
        54           F   tau(  54) = (   0.3644875   0.5112828   0.1388359  )
        55           F   tau(  55) = (   0.4895875   0.5832499   0.4479962  )
        56           F   tau(  56) = (   0.6144875   0.5112828   0.1388359  )
        57           F   tau(  57) = (  -0.3854125   0.7997575   0.1388359  )
        58           F   tau(  58) = (  -0.2605125   0.7277904   0.1388359  )
        59           F   tau(  59) = (  -0.1354125   0.7997575   0.4479962  )
        60           F   tau(  60) = (  -0.0105125   0.7277904   0.1388359  )
        61           F   tau(  61) = (   0.1145875   0.7997575   0.1388359  )
        62           F   tau(  62) = (   0.2394875   0.7277904   0.1388359  )
        63           F   tau(  63) = (   0.3645875   0.7997575   0.4479962  )
        64           F   tau(  64) = (   0.4894875   0.7277904   0.4479962  )

     number of k points=    36
                       cart. coord. in units 2pi/alat
        k(    1) = (   0.0000000   0.0000000   0.0000000), wk =   0.0312500
        k(    2) = (   0.0000000   0.0000000   0.4260163), wk =   0.0625000
        k(    3) = (   0.0000000   0.0000000  -0.8520325), wk =   0.0312500
        k(    4) = (   0.0000000   0.2886734   0.0000000), wk =   0.0625000
        k(    5) = (   0.0000000   0.2886734   0.4260163), wk =   0.0625000
        k(    6) = (   0.0000000   0.2886734  -0.8520325), wk =   0.0625000
        k(    7) = (   0.0000000  -0.5773468   0.0000000), wk =   0.0312500
        k(    8) = (   0.0000000  -0.5773468   0.4260163), wk =   0.0625000
        k(    9) = (   0.0000000  -0.5773468  -0.8520325), wk =   0.0312500
        k(   10) = (   0.2500000   0.1443367   0.0000000), wk =   0.0625000
        k(   11) = (   0.2500000   0.1443367   0.4260163), wk =   0.0625000
        k(   12) = (   0.2500000   0.1443367  -0.8520325), wk =   0.0625000
        k(   13) = (   0.2500000   0.4330101   0.0000000), wk =   0.0625000
        k(   14) = (   0.2500000   0.4330101   0.4260163), wk =   0.0625000
        k(   15) = (   0.2500000   0.4330101  -0.8520325), wk =   0.0625000
        k(   16) = (  -0.5000000  -0.2886734   0.0000000), wk =   0.0312500
        k(   17) = (  -0.5000000  -0.2886734   0.4260163), wk =   0.0625000
        k(   18) = (  -0.5000000  -0.2886734  -0.8520325), wk =   0.0312500
        k(   19) = (  -0.5000000   0.0000000   0.0000000), wk =   0.0625000
        k(   20) = (  -0.5000000   0.0000000   0.4260163), wk =   0.0625000
        k(   21) = (  -0.5000000   0.0000000  -0.8520325), wk =   0.0625000
        k(   22) = (   0.0000000  -0.2886734   0.4260163), wk =   0.0625000
        k(   23) = (  -0.2500000   0.1443367   0.0000000), wk =   0.0625000
        k(   24) = (  -0.2500000  -0.1443367   0.4260163), wk =   0.0625000
        k(   25) = (  -0.2500000   0.1443367  -0.4260163), wk =   0.0625000
        k(   26) = (   0.2500000  -0.1443367  -0.4260163), wk =   0.0625000
        k(   27) = (  -0.2500000   0.1443367   0.8520325), wk =   0.0625000
        k(   28) = (  -0.2500000   0.4330101   0.0000000), wk =   0.0625000
        k(   29) = (  -0.2500000  -0.4330101   0.4260163), wk =   0.0625000
        k(   30) = (  -0.2500000   0.4330101  -0.4260163), wk =   0.0625000
        k(   31) = (   0.2500000  -0.4330101  -0.4260163), wk =   0.0625000
        k(   32) = (  -0.2500000   0.4330101   0.8520325), wk =   0.0625000
        k(   33) = (   0.5000000  -0.2886734   0.0000000), wk =   0.0312500
        k(   34) = (   0.5000000  -0.2886734  -0.4260163), wk =   0.0625000
        k(   35) = (   0.5000000  -0.2886734   0.8520325), wk =   0.0312500
        k(   36) = (   0.5000000   0.0000000   0.4260163), wk =   0.0625000

     Dense  grid:   657805 G-vectors     FFT dimensions: ( 135, 135,  80)

     Estimated max dynamical RAM per process >     161.93 MB

     Estimated total dynamical RAM >      10.12 GB

     Initial potential from superposition of free atoms

     starting charge     351.7658, renormalised to     352.0000
     Starting wfcs are random

     total cpu time spent up to now is       18.1 secs

     Self-consistent Calculation

     iteration #  1     ecut=   115.00 Ry     beta= 0.70
     Davidson diagonalization with overlap
     c_bands:  1 eigenvalues not converged
     ethr =  1.00E-02,  avg # of iterations = 18.6

     Threshold (ethr) on eigenvalues was too large:
     Diagonalizing with lowered threshold

     Davidson diagonalization with overlap
     ethr =  9.04E-04,  avg # of iterations =  8.8

     total cpu time spent up to now is      310.5 secs

     total energy              =   -1880.15652203 Ry
     estimated scf accuracy    <       3.88067263 Ry

     iteration #  2     ecut=   115.00 Ry     beta= 0.70
     Davidson diagonalization with overlap
     c_bands:  1 eigenvalues not converged
     c_bands:  1 eigenvalues not converged
     c_bands:  1 eigenvalues not converged
     c_bands:  1 eigenvalues not converged
     c_bands:  1 eigenvalues not converged
     ethr =  1.10E-03,  avg # of iterations = 15.4

     total cpu time spent up to now is      405.4 secs

     total energy              =   -1879.33512538 Ry
     estimated scf accuracy    <       4.92173631 Ry

     iteration #  3     ecut=   115.00 Ry     beta= 0.70
     Davidson diagonalization with overlap
     ethr =  1.10E-03,  avg # of iterations = 11.1

     total cpu time spent up to now is      501.9 secs

     total energy              =   -1880.02167352 Ry
     estimated scf accuracy    <       8.30665478 Ry

     iteration #  4     ecut=   115.00 Ry     beta= 0.70
     Davidson diagonalization with overlap
     ethr =  1.10E-03,  avg # of iterations =  9.6

     total cpu time spent up to now is      576.3 secs

     total energy              =   -1880.79687653 Ry
     estimated scf accuracy    <       3.26724572 Ry

     iteration #  5     ecut=   115.00 Ry     beta= 0.70
     Davidson diagonalization with overlap
     c_bands:  2 eigenvalues not converged
     c_bands:  1 eigenvalues not converged
     c_bands:  5 eigenvalues not converged
     c_bands:  2 eigenvalues not converged
     c_bands:  1 eigenvalues not converged
     ethr =  9.28E-04,  avg # of iterations = 15.5

     total cpu time spent up to now is      644.9 secs

     total energy              =   -1881.00866857 Ry
     estimated scf accuracy    <       0.85420100 Ry

     iteration #  6     ecut=   115.00 Ry     beta= 0.70
     Davidson diagonalization with overlap
     c_bands:  1 eigenvalues not converged
     c_bands:  1 eigenvalues not converged
     c_bands:  1 eigenvalues not converged
     ethr =  2.43E-04,  avg # of iterations =  9.3

     total cpu time spent up to now is      710.5 secs

     total energy              =   -1881.06961413 Ry
     estimated scf accuracy    <       0.23366184 Ry

     iteration #  7     ecut=   115.00 Ry     beta= 0.70
     Davidson diagonalization with overlap
     c_bands:  1 eigenvalues not converged
     c_bands:  1 eigenvalues not converged
     c_bands:  1 eigenvalues not converged
     c_bands:  1 eigenvalues not converged
     c_bands:  1 eigenvalues not converged
     ethr =  6.64E-05,  avg # of iterations = 14.0

     total cpu time spent up to now is      790.3 secs

     total energy              =   -1881.07840008 Ry
     estimated scf accuracy    <       0.20565007 Ry

     iteration #  8     ecut=   115.00 Ry     beta= 0.70
     Davidson diagonalization with overlap
     ethr =  5.84E-05,  avg # of iterations = 12.4

     total cpu time spent up to now is      857.9 secs

     total energy              =   -1881.09619791 Ry
     estimated scf accuracy    <       0.11787905 Ry

     iteration #  9     ecut=   115.00 Ry     beta= 0.70
     Davidson diagonalization with overlap
     c_bands:  1 eigenvalues not converged
     c_bands:  1 eigenvalues not converged
     ethr =  3.35E-05,  avg # of iterations = 12.7

     total cpu time spent up to now is      925.6 secs

     total energy              =   -1881.09701345 Ry
     estimated scf accuracy    <       0.08040658 Ry

     iteration # 10     ecut=   115.00 Ry     beta= 0.70
     Davidson diagonalization with overlap
     c_bands:  1 eigenvalues not converged
     c_bands:  2 eigenvalues not converged
     c_bands:  2 eigenvalues not converged
     c_bands:  1 eigenvalues not converged
     c_bands:  2 eigenvalues not converged
     c_bands:  2 eigenvalues not converged
     c_bands:  1 eigenvalues not converged
     c_bands:  1 eigenvalues not converged
     c_bands:  1 eigenvalues not converged
     c_bands:  1 eigenvalues not converged
     ethr =  2.28E-05,  avg # of iterations = 13.2

     total cpu time spent up to now is      993.4 secs

     total energy              =   -1881.09909418 Ry
     estimated scf accuracy    <       0.07718088 Ry

     iteration # 11     ecut=   115.00 Ry     beta= 0.70
     Davidson diagonalization with overlap
     c_bands:  2 eigenvalues not converged
     c_bands:  2 eigenvalues not converged
     c_bands:  1 eigenvalues not converged
     c_bands:  2 eigenvalues not converged
     c_bands:  1 eigenvalues not converged
     c_bands:  1 eigenvalues not converged
     c_bands:  2 eigenvalues not converged
     ethr =  2.19E-05,  avg # of iterations =  9.1

     total cpu time spent up to now is     1053.2 secs

     total energy              =   -1881.10191333 Ry
     estimated scf accuracy    <       0.01145966 Ry

     iteration # 12     ecut=   115.00 Ry     beta= 0.70
     Davidson diagonalization with overlap
     c_bands:  1 eigenvalues not converged
     ethr =  3.26E-06,  avg # of iterations = 13.4

     total cpu time spent up to now is     1127.4 secs

     total energy              =   -1881.10451287 Ry
     estimated scf accuracy    <       0.01395256 Ry

     iteration # 13     ecut=   115.00 Ry     beta= 0.70
     Davidson diagonalization with overlap
     c_bands:  1 eigenvalues not converged
     c_bands:  1 eigenvalues not converged
     c_bands:  1 eigenvalues not converged
     ethr =  3.26E-06,  avg # of iterations =  7.2

     total cpu time spent up to now is     1183.2 secs

     total energy              =   -1881.10400737 Ry
     estimated scf accuracy    <       0.00775195 Ry

     iteration # 14     ecut=   115.00 Ry     beta= 0.70
     Davidson diagonalization with overlap
     c_bands:  1 eigenvalues not converged
     c_bands:  1 eigenvalues not converged
     ethr =  2.20E-06,  avg # of iterations = 13.9

     total cpu time spent up to now is     1252.4 secs

     total energy              =   -1881.10429611 Ry
     estimated scf accuracy    <       0.01774415 Ry

     iteration # 15     ecut=   115.00 Ry     beta= 0.70
     Davidson diagonalization with overlap
     c_bands:  1 eigenvalues not converged
     c_bands:  1 eigenvalues not converged
     c_bands:  1 eigenvalues not converged
     c_bands:  2 eigenvalues not converged
     ethr =  2.20E-06,  avg # of iterations =  5.0

     total cpu time spent up to now is     1306.6 secs

     total energy              =   -1881.10385129 Ry
     estimated scf accuracy    <       0.00718953 Ry

     iteration # 16     ecut=   115.00 Ry     beta= 0.70
     Davidson diagonalization with overlap
     c_bands:  1 eigenvalues not converged
     c_bands:  1 eigenvalues not converged
     c_bands:  1 eigenvalues not converged
     ethr =  2.04E-06,  avg # of iterations = 13.1

     total cpu time spent up to now is     1373.3 secs

     total energy              =   -1881.10458155 Ry
     estimated scf accuracy    <       0.01389306 Ry

     iteration # 17     ecut=   115.00 Ry     beta= 0.70
     Davidson diagonalization with overlap
     ethr =  2.04E-06,  avg # of iterations =  1.8

     total cpu time spent up to now is     1419.1 secs

     total energy              =   -1881.10438558 Ry
     estimated scf accuracy    <       0.01195319 Ry

     iteration # 18     ecut=   115.00 Ry     beta= 0.70
     Davidson diagonalization with overlap
     c_bands:  1 eigenvalues not converged
     c_bands:  1 eigenvalues not converged
     c_bands:  1 eigenvalues not converged
     c_bands:  1 eigenvalues not converged
     c_bands:  1 eigenvalues not converged
     ethr =  2.04E-06,  avg # of iterations =  4.3

     total cpu time spent up to now is     1468.9 secs

     total energy              =   -1881.10446846 Ry
     estimated scf accuracy    <       0.00266251 Ry

     iteration # 19     ecut=   115.00 Ry     beta= 0.70
     Davidson diagonalization with overlap
     c_bands:  1 eigenvalues not converged
     c_bands:  1 eigenvalues not converged
     c_bands:  1 eigenvalues not converged
     c_bands:  1 eigenvalues not converged
     c_bands:  1 eigenvalues not converged
     c_bands:  1 eigenvalues not converged
     c_bands:  1 eigenvalues not converged
     c_bands:  1 eigenvalues not converged
     c_bands:  2 eigenvalues not converged
     ethr =  7.56E-07,  avg # of iterations = 12.2

     total cpu time spent up to now is     1533.9 secs

     total energy              =   -1881.10490668 Ry
     estimated scf accuracy    <       0.00484802 Ry

     iteration # 20     ecut=   115.00 Ry     beta= 0.70
     Davidson diagonalization with overlap
     ethr =  7.56E-07,  avg # of iterations =  1.6

     total cpu time spent up to now is     1579.0 secs

     total energy              =   -1881.10484428 Ry
     estimated scf accuracy    <       0.00476556 Ry

     iteration # 21     ecut=   115.00 Ry     beta= 0.70
     Davidson diagonalization with overlap
     ethr =  7.56E-07,  avg # of iterations =  1.0

     total cpu time spent up to now is     1622.2 secs

     total energy              =   -1881.10467217 Ry
     estimated scf accuracy    <       0.00457042 Ry

     iteration # 22     ecut=   115.00 Ry     beta= 0.70
     Davidson diagonalization with overlap
     c_bands:  1 eigenvalues not converged
     c_bands:  1 eigenvalues not converged
     c_bands:  1 eigenvalues not converged
     c_bands:  1 eigenvalues not converged
     ethr =  7.56E-07,  avg # of iterations =  3.9

     total cpu time spent up to now is     1670.7 secs

     total energy              =   -1881.10474808 Ry
     estimated scf accuracy    <       0.00083492 Ry

     iteration # 23     ecut=   115.00 Ry     beta= 0.70
     Davidson diagonalization with overlap
     c_bands:  1 eigenvalues not converged
     c_bands:  1 eigenvalues not converged
     c_bands:  1 eigenvalues not converged
     ethr =  2.37E-07,  avg # of iterations = 10.5

     total cpu time spent up to now is     1735.6 secs

     total energy              =   -1881.10483234 Ry
     estimated scf accuracy    <       0.00025847 Ry

     iteration # 24     ecut=   115.00 Ry     beta= 0.70
     Davidson diagonalization with overlap
     c_bands:  2 eigenvalues not converged
     ethr =  7.34E-08,  avg # of iterations =  5.9

     total cpu time spent up to now is     1788.9 secs

     total energy              =   -1881.10479850 Ry
     estimated scf accuracy    <       0.00028723 Ry

     iteration # 25     ecut=   115.00 Ry     beta= 0.70
     Davidson diagonalization with overlap
     c_bands:  1 eigenvalues not converged
     c_bands:  1 eigenvalues not converged
     ethr =  7.34E-08,  avg # of iterations = 11.8

     total cpu time spent up to now is     1854.3 secs

     total energy              =   -1881.10482198 Ry
     estimated scf accuracy    <       0.00009989 Ry

     iteration # 26     ecut=   115.00 Ry     beta= 0.70
     Davidson diagonalization with overlap
     c_bands:  1 eigenvalues not converged
     ethr =  2.84E-08,  avg # of iterations =  6.7

     total cpu time spent up to now is     1907.9 secs

     total energy              =   -1881.10482442 Ry
     estimated scf accuracy    <       0.00008312 Ry

     iteration # 27     ecut=   115.00 Ry     beta= 0.70
     Davidson diagonalization with overlap
     c_bands:  1 eigenvalues not converged
     c_bands:  1 eigenvalues not converged
     ethr =  2.36E-08,  avg # of iterations = 14.4

     total cpu time spent up to now is     1977.0 secs

     total energy              =   -1881.10481721 Ry
     estimated scf accuracy    <       0.00027790 Ry

     iteration # 28     ecut=   115.00 Ry     beta= 0.70
     Davidson diagonalization with overlap
     c_bands:  1 eigenvalues not converged
     c_bands:  1 eigenvalues not converged
     c_bands:  1 eigenvalues not converged
     c_bands:  1 eigenvalues not converged
     c_bands:  1 eigenvalues not converged
     c_bands:  1 eigenvalues not converged
     c_bands:  1 eigenvalues not converged
     ethr =  2.36E-08,  avg # of iterations = 11.0

     total cpu time spent up to now is     2039.6 secs

     total energy              =   -1881.10482185 Ry
     estimated scf accuracy    <       0.00002702 Ry

     iteration # 29     ecut=   115.00 Ry     beta= 0.70
     Davidson diagonalization with overlap
     c_bands:  1 eigenvalues not converged
     c_bands:  1 eigenvalues not converged
     c_bands:  1 eigenvalues not converged
     c_bands:  1 eigenvalues not converged
     c_bands:  1 eigenvalues not converged
     ethr =  7.68E-09,  avg # of iterations = 10.6

     total cpu time spent up to now is     2100.0 secs

     total energy              =   -1881.10482312 Ry
     estimated scf accuracy    <       0.00000866 Ry

     iteration # 30     ecut=   115.00 Ry     beta= 0.70
     Davidson diagonalization with overlap
     c_bands:  1 eigenvalues not converged
     c_bands:  1 eigenvalues not converged
     c_bands:  1 eigenvalues not converged
     c_bands:  1 eigenvalues not converged
     c_bands:  1 eigenvalues not converged
     c_bands:  2 eigenvalues not converged
     c_bands:  1 eigenvalues not converged
     c_bands:  1 eigenvalues not converged
     ethr =  2.46E-09,  avg # of iterations =  9.1

     total cpu time spent up to now is     2158.5 secs

     End of self-consistent calculation

          k = 0.0000 0.0000 0.0000 ( 82257 PWs)   bands (ev):

   -25.2858 -24.9388 -24.6362 -24.5357 -24.1903 -23.7662 -23.6349 -23.5564
   -23.1606 -22.7393 -22.4865 -22.4699 -22.4243 -21.9474 -21.2899 -21.2160
   -20.8834 -20.7692 -20.2708 -19.9699 -19.7177 -19.3681 -19.1925 -18.4705
   -18.3592 -18.2385 -17.6736 -17.5781 -17.0050 -16.9592 -16.7976 -16.4885
   -12.7488 -11.8812 -11.7889 -11.6800 -11.5923 -11.5113 -11.2581  -9.9325
    -9.7354  -9.6812  -9.4556  -9.4287  -9.3967  -9.1257  -8.8123  -8.7168
    -7.8990  -7.6786  -7.4835  -6.9309  -6.6877  -6.6496  -6.4963  -6.3878
    -6.3692  -6.3108  -6.1829  -6.1165  -5.9950  -5.9007  -5.7785  -5.6958
    -5.5437  -5.4168  -5.2292  -5.2002  -5.0613  -4.9898  -4.9360  -4.8460
    -4.6906  -4.5068  -4.4652  -4.3927  -4.3066  -4.1906  -4.1702  -4.1211
    -4.0396  -3.9275  -3.8041  -3.7580  -3.7183  -3.6510  -3.5855  -3.5353
    -3.4210  -3.2602  -3.1448  -3.0972  -3.0620  -2.8972  -2.8682  -2.7272
    -2.6102  -2.4290  -2.3984  -2.2528  -2.1751  -2.0516  -1.8300  -1.8007
    -1.7799  -1.6148  -1.3785  -1.3383  -1.2368  -1.1617  -1.1263  -1.0313
    -1.0047  -0.9187  -0.8521  -0.7920  -0.7490  -0.6007  -0.5463  -0.5204
    -0.3240  -0.3180  -0.2569  -0.1988  -0.0429   0.0096   0.0622   0.1486
     0.2648   0.3104   0.3602   0.5241   0.5904   0.6911   0.7146   0.7853
     0.8991   1.0550   1.0847   1.1805   1.2704   1.5146   1.5869   1.7958
     1.9466   2.0429   2.2279   2.3799   2.5612   2.6277   2.7678   2.9726
     3.0485   3.4844   3.6296   3.7722   4.1249   4.2807   4.3698   4.4647
     4.5047   4.6343   5.1099   5.2748   5.2820   5.5608   6.2124   6.2938
     6.4379   6.5786   6.6399   6.9121   6.9356   7.2435   7.3038   7.3319

          k = 0.0000 0.0000 0.4260 ( 82282 PWs)   bands (ev):

   -25.2856 -24.9388 -24.6360 -24.5357 -24.1899 -23.7649 -23.6360 -23.5568
   -23.1607 -22.7383 -22.4867 -22.4693 -22.4255 -21.9472 -21.2891 -21.2164
   -20.8844 -20.7692 -20.2717 -19.9702 -19.7180 -19.3685 -19.1926 -18.4712
   -18.3573 -18.2409 -17.6726 -17.5800 -17.0043 -16.9609 -16.7979 -16.4897
   -12.7393 -11.8800 -11.7864 -11.6766 -11.5862 -11.5038 -11.2480  -9.9450
    -9.7417  -9.6900  -9.4567  -9.4294  -9.3980  -9.1289  -8.8089  -8.7129
    -7.9148  -7.6927  -7.4907  -6.9267  -6.6969  -6.6546  -6.5140  -6.4081
    -6.3786  -6.3106  -6.1808  -6.1247  -5.9919  -5.9172  -5.7745  -5.7008
    -5.5400  -5.4112  -5.2233  -5.1972  -5.0412  -4.9856  -4.9488  -4.8411
    -4.6834  -4.5003  -4.4492  -4.3849  -4.3142  -4.1867  -4.1579  -4.1203
    -4.0378  -3.9100  -3.8017  -3.7603  -3.7226  -3.6535  -3.5844  -3.5427
    -3.4238  -3.2589  -3.1362  -3.0989  -3.0714  -2.8937  -2.8334  -2.6968
    -2.5877  -2.4106  -2.3785  -2.2193  -2.1608  -2.0371  -1.8220  -1.7845
    -1.7586  -1.5952  -1.3501  -1.3083  -1.2358  -1.1592  -1.1326  -1.0479
    -0.9832  -0.9129  -0.8500  -0.7836  -0.7197  -0.5896  -0.5451  -0.5101
    -0.3489  -0.3148  -0.2746  -0.2279  -0.0556  -0.0174   0.0332   0.1329
     0.2408   0.2958   0.3297   0.5089   0.5741   0.6731   0.6910   0.7678
     0.8847   1.0521   1.0857   1.1718   1.2728   1.5124   1.5829   1.8051
     1.9520   2.0517   2.2344   2.3888   2.5654   2.6301   2.7764   2.9669
     3.0571   3.4937   3.6248   3.7625   4.1192   4.2733   4.3645   4.4514
     4.4911   4.6273   5.0975   5.2604   5.2713   5.5536   6.1917   6.2851
     6.4348   6.5768   6.6266   6.9019   6.9312   7.1186   7.2533   7.2989

          k = 0.0000 0.0000-0.8520 ( 82168 PWs)   bands (ev):

   -25.2853 -24.9387 -24.6358 -24.5358 -24.1896 -23.7636 -23.6371 -23.5572
   -23.1608 -22.7373 -22.4869 -22.4687 -22.4267 -21.9469 -21.2882 -21.2169
   -20.8854 -20.7691 -20.2726 -19.9706 -19.7182 -19.3688 -19.1928 -18.4719
   -18.3553 -18.2434 -17.6714 -17.5819 -17.0034 -16.9627 -16.7982 -16.4908
   -12.7297 -11.8790 -11.7839 -11.6731 -11.5801 -11.4962 -11.2377  -9.9577
    -9.7482  -9.6989  -9.4579  -9.4302  -9.3990  -9.1319  -8.8054  -8.7090
    -7.9306  -7.7069  -7.4979  -6.9225  -6.7143  -6.6534  -6.5312  -6.4264
    -6.3866  -6.3110  -6.1788  -6.1328  -5.9883  -5.9327  -5.7696  -5.7061
    -5.5367  -5.4055  -5.2214  -5.1920  -5.0210  -4.9812  -4.9601  -4.8362
    -4.6763  -4.5000  -4.4332  -4.3781  -4.3207  -4.1884  -4.1540  -4.1087
    -4.0359  -3.8901  -3.7985  -3.7640  -3.7247  -3.6540  -3.5847  -3.5468
    -3.4278  -3.2571  -3.1293  -3.0997  -3.0787  -2.8882  -2.8006  -2.6612
    -2.5667  -2.3844  -2.3637  -2.1853  -2.1463  -2.0209  -1.7984  -1.7837
    -1.7373  -1.5834  -1.3280  -1.2812  -1.2475  -1.1470  -1.1324  -1.0606
    -0.9604  -0.9158  -0.8377  -0.7734  -0.7011  -0.5720  -0.5376  -0.5015
    -0.3693  -0.3277  -0.2887  -0.2524  -0.0749  -0.0371   0.0084   0.1147
     0.2174   0.2832   0.2982   0.4927   0.5566   0.6551   0.6651   0.7505
     0.8708   1.0466   1.0876   1.1639   1.2767   1.5087   1.5791   1.8144
     1.9571   2.0604   2.2404   2.3975   2.5691   2.6323   2.7853   2.9612
     3.0653   3.5029   3.6196   3.7524   4.1134   4.2650   4.3594   4.4363
     4.4776   4.6200   5.0843   5.2470   5.2595   5.5462   6.1705   6.2757
     6.4310   6.5746   6.6112   6.8337   6.8919   6.9536   7.2224   7.2884

          k = 0.0000 0.2887 0.0000 ( 82151 PWs)   bands (ev):

   -25.2852 -24.9394 -24.6381 -24.5348 -24.1881 -23.7665 -23.6398 -23.5564
   -23.1545 -22.7289 -22.4997 -22.4648 -22.4346 -21.9384 -21.2981 -21.2124
   -20.8834 -20.7696 -20.2606 -19.9883 -19.7159 -19.3680 -19.1708 -18.4791
   -18.3524 -18.2671 -17.6707 -17.5541 -17.0176 -16.9569 -16.7957 -16.4901
   -12.6833 -12.1410 -11.9215 -11.7795 -11.3873 -11.2123 -10.9333 -10.3050
   -10.0899  -9.7709  -9.7003  -9.2718  -9.2145  -9.0569  -8.7583  -8.5407
    -7.6900  -7.4537  -7.2458  -7.0280  -6.9570  -6.8825  -6.7080  -6.5549
    -6.3994  -6.3496  -6.1836  -6.0342  -5.9149  -5.7840  -5.6908  -5.5511
    -5.5181  -5.4040  -5.2870  -5.1633  -5.0839  -5.0041  -4.9350  -4.8410
    -4.7158  -4.6302  -4.5240  -4.3863  -4.3062  -4.2680  -4.2169  -4.0916
    -4.0133  -3.9360  -3.8878  -3.7621  -3.6851  -3.6547  -3.5919  -3.4733
    -3.3934  -3.2315  -3.1657  -3.0924  -3.0116  -2.9365  -2.8583  -2.6858
    -2.5724  -2.4268  -2.3003  -2.2170  -2.1602  -1.9873  -1.9131  -1.8284
    -1.7384  -1.6646  -1.4822  -1.3458  -1.2595  -1.1515  -1.0957  -1.0567
    -0.9896  -0.8867  -0.8544  -0.7738  -0.6923  -0.6191  -0.5760  -0.4591
    -0.3693  -0.3227  -0.2339  -0.1203  -0.0594   0.0163   0.0499   0.1447
     0.2756   0.3535   0.3695   0.5019   0.5883   0.6933   0.7462   0.7836
     0.8982   1.0521   1.1275   1.1808   1.2801   1.4472   1.5772   1.7345
     1.9080   1.9959   2.2157   2.4020   2.5995   2.6420   2.7577   2.8975
     3.0675   3.3898   3.6184   3.7902   4.1164   4.2471   4.3717   4.4152
     4.5240   4.6359   5.1180   5.2865   5.3174   5.5642   6.1915   6.2952
     6.4234   6.5760   6.6400   6.9146   6.9350   7.2444   7.2965   7.3440

          k = 0.0000 0.2887 0.4260 ( 82218 PWs)   bands (ev):

   -25.2850 -24.9393 -24.6377 -24.5349 -24.1878 -23.7659 -23.6404 -23.5567
   -23.1545 -22.7280 -22.4984 -22.4650 -22.4363 -21.9383 -21.2969 -21.2131
   -20.8845 -20.7697 -20.2613 -19.9886 -19.7164 -19.3684 -19.1710 -18.4797
   -18.3512 -18.2688 -17.6701 -17.5554 -17.0166 -16.9591 -16.7960 -16.4910
   -12.6743 -12.1351 -11.9174 -11.7734 -11.3858 -11.2079 -10.9281 -10.3075
   -10.0874  -9.7789  -9.7087  -9.2738  -9.2188  -9.0569  -8.7610  -8.5395
    -7.7100  -7.4642  -7.2587  -7.0318  -6.9724  -6.8876  -6.7107  -6.5526
    -6.4062  -6.3484  -6.1927  -6.0337  -5.9145  -5.8019  -5.6968  -5.5524
    -5.5213  -5.4003  -5.2736  -5.1678  -5.0836  -5.0079  -4.9294  -4.8373
    -4.7179  -4.6128  -4.5159  -4.3701  -4.2981  -4.2565  -4.2191  -4.0893
    -3.9976  -3.9315  -3.8837  -3.7551  -3.6915  -3.6546  -3.5875  -3.4768
    -3.4020  -3.2295  -3.1590  -3.0913  -3.0163  -2.9211  -2.8601  -2.6544
    -2.5491  -2.3939  -2.2794  -2.1940  -2.1437  -1.9732  -1.8920  -1.8265
    -1.7147  -1.6355  -1.4663  -1.3144  -1.2492  -1.1699  -1.1054  -1.0430
    -0.9866  -0.8974  -0.8300  -0.7683  -0.6803  -0.6151  -0.5893  -0.4525
    -0.3744  -0.3347  -0.2417  -0.1380  -0.0763  -0.0106   0.0183   0.1334
     0.2608   0.3230   0.3609   0.4795   0.5823   0.6767   0.7341   0.7641
     0.8939   1.0373   1.1227   1.1775   1.2778   1.4441   1.5813   1.7378
     1.9083   2.0030   2.2227   2.4137   2.6052   2.6446   2.7632   2.8979
     3.0715   3.3995   3.6120   3.7801   4.1111   4.2358   4.3623   4.4036
     4.5155   4.6263   5.1056   5.2748   5.3057   5.5547   6.1626   6.2875
     6.4205   6.5735   6.6220   6.9003   6.9326   7.1836   7.2754   7.3344

          k = 0.0000 0.2887-0.8520 ( 82212 PWs)   bands (ev):

   -25.2848 -24.9392 -24.6373 -24.5351 -24.1875 -23.7652 -23.6410 -23.5571
   -23.1545 -22.7272 -22.4971 -22.4651 -22.4380 -21.9382 -21.2956 -21.2139
   -20.8855 -20.7697 -20.2621 -19.9888 -19.7169 -19.3687 -19.1712 -18.4803
   -18.3499 -18.2706 -17.6694 -17.5567 -17.0155 -16.9613 -16.7964 -16.4920
   -12.6652 -12.1289 -11.9133 -11.7673 -11.3845 -11.2034 -10.9230 -10.3098
   -10.0855  -9.7872  -9.7161  -9.2754  -9.2236  -9.0565  -8.7640  -8.5382
    -7.7277  -7.4772  -7.2738  -7.0382  -6.9879  -6.8871  -6.7128  -6.5516
    -6.4104  -6.3514  -6.2019  -6.0332  -5.9097  -5.8168  -5.7089  -5.5518
    -5.5217  -5.4021  -5.2631  -5.1662  -5.0805  -5.0078  -4.9274  -4.8407
    -4.7105  -4.6062  -4.5195  -4.3553  -4.2959  -4.2418  -4.2017  -4.0830
    -3.9915  -3.9330  -3.8664  -3.7515  -3.6875  -3.6551  -3.5894  -3.4824
    -3.4109  -3.2321  -3.1632  -3.0898  -3.0064  -2.9006  -2.8428  -2.6282
    -2.5237  -2.3654  -2.2613  -2.1770  -2.1256  -1.9590  -1.8767  -1.8259
    -1.6934  -1.6091  -1.4376  -1.2986  -1.2563  -1.1812  -1.1124  -1.0386
    -0.9550  -0.9094  -0.8238  -0.7555  -0.6655  -0.6058  -0.5840  -0.4635
    -0.3943  -0.3445  -0.2550  -0.1487  -0.0964  -0.0374   0.0065   0.1192
     0.2547   0.2929   0.3459   0.4543   0.5762   0.6595   0.7192   0.7441
     0.8873   1.0308   1.1218   1.1730   1.2722   1.4388   1.5802   1.7448
     1.9087   2.0108   2.2291   2.4236   2.6086   2.6495   2.7683   2.8976
     3.0756   3.4072   3.6068   3.7719   4.1047   4.2220   4.3511   4.3938
     4.5057   4.6150   5.0966   5.2612   5.2925   5.5450   6.1336   6.2780
     6.4181   6.5670   6.6011   6.8667   6.9269   7.0266   7.2386   7.3079

          k = 0.0000-0.5773 0.0000 ( 82216 PWs)   bands (ev):

   -25.2846 -24.9400 -24.6399 -24.5339 -24.1860 -23.7669 -23.6446 -23.5563
   -23.1483 -22.7177 -22.5140 -22.4601 -22.4437 -21.9300 -21.3058 -21.2092
   -20.8835 -20.7700 -20.2493 -20.0072 -19.7143 -19.3679 -19.1491 -18.4899
   -18.3381 -18.3000 -17.6694 -17.5295 -17.0303 -16.9549 -16.7938 -16.4916
   -12.5456 -12.3923 -11.9845 -11.8395 -11.1275 -10.9036 -10.7284 -10.4793
   -10.2994 -10.2566  -9.6784  -9.3467  -9.2421  -9.1539  -8.3389  -7.9941
    -7.7692  -7.4944  -7.2819  -7.2044  -7.0827  -6.9118  -6.7452  -6.5173
    -6.4075  -6.2440  -6.1700  -6.0849  -5.9592  -5.8117  -5.6808  -5.6012
    -5.4732  -5.3257  -5.2881  -5.1677  -5.0880  -5.0031  -4.9821  -4.8916
    -4.6918  -4.6476  -4.4512  -4.4052  -4.3631  -4.3103  -4.2352  -4.1540
    -3.9992  -3.9037  -3.8903  -3.7821  -3.7170  -3.6621  -3.5418  -3.4765
    -3.3826  -3.2211  -3.1917  -3.0974  -3.0062  -2.9539  -2.7838  -2.6196
    -2.5387  -2.3636  -2.2764  -2.2496  -2.1175  -1.9940  -1.9337  -1.8166
    -1.7269  -1.6337  -1.5761  -1.3894  -1.2911  -1.1713  -1.1021  -1.0098
    -0.9873  -0.9035  -0.8018  -0.7740  -0.7151  -0.6614  -0.4855  -0.4284
    -0.3936  -0.2943  -0.1639  -0.1485  -0.0683   0.0001   0.0801   0.1720
     0.2646   0.3667   0.4276   0.4561   0.5738   0.6639   0.7247   0.8032
     0.9963   1.0518   1.0884   1.1854   1.3082   1.3764   1.5691   1.7753
     1.8125   1.9453   2.2257   2.3370   2.6193   2.7064   2.7281   2.9238
     3.0230   3.2808   3.6069   3.8136   4.1070   4.2255   4.3312   4.4015
     4.5503   4.6231   5.1253   5.2929   5.3538   5.5783   6.1660   6.2960
     6.3942   6.5802   6.6504   6.9214   6.9317   7.2399   7.2969   7.3540

          k = 0.0000-0.5773 0.4260 ( 82214 PWs)   bands (ev):

   -25.2844 -24.9398 -24.6394 -24.5342 -24.1857 -23.7669 -23.6447 -23.5567
   -23.1482 -22.7170 -22.5118 -22.4605 -22.4458 -21.9299 -21.3043 -21.2103
   -20.8845 -20.7702 -20.2499 -20.0074 -19.7150 -19.3682 -19.1493 -18.4904
   -18.3384 -18.3002 -17.6691 -17.5304 -17.0292 -16.9575 -16.7942 -16.4925
   -12.5384 -12.3830 -11.9799 -11.8328 -11.1314 -10.9027 -10.7257 -10.4717
   -10.3022 -10.2537  -9.6890  -9.3490  -9.2444  -9.1533  -8.3471  -8.0003
    -7.7837  -7.5064  -7.2886  -7.2174  -7.0956  -6.9139  -6.7473  -6.5165
    -6.4113  -6.2526  -6.1733  -6.0895  -5.9564  -5.8086  -5.6891  -5.6181
    -5.4772  -5.3278  -5.2745  -5.1685  -5.0876  -5.0056  -4.9890  -4.8842
    -4.6998  -4.6272  -4.4424  -4.3801  -4.3565  -4.2918  -4.2370  -4.1461
    -3.9935  -3.8942  -3.8837  -3.7635  -3.7231  -3.6602  -3.5545  -3.4735
    -3.3867  -3.2163  -3.1915  -3.1016  -2.9883  -2.9553  -2.7785  -2.5920
    -2.5128  -2.3391  -2.2476  -2.2239  -2.1049  -1.9849  -1.9199  -1.8174
    -1.7055  -1.6043  -1.5519  -1.3673  -1.2954  -1.1659  -1.1110  -1.0085
    -0.9963  -0.9188  -0.7727  -0.7592  -0.7053  -0.6526  -0.5080  -0.4517
    -0.3878  -0.2951  -0.1835  -0.1650  -0.0900  -0.0248   0.0720   0.1611
     0.2536   0.3482   0.4160   0.4397   0.5611   0.6521   0.7180   0.7831
     0.9913   1.0624   1.0718   1.1751   1.3046   1.3693   1.5739   1.7776
     1.8101   1.9484   2.2338   2.3481   2.6242   2.7065   2.7297   2.9299
     3.0314   3.2852   3.6006   3.8060   4.1008   4.2095   4.3163   4.3966
     4.5433   4.6091   5.1166   5.2787   5.3443   5.5671   6.1291   6.2887
     6.3937   6.5735   6.6364   6.9053   6.9292   7.2013   7.2864   7.3478

          k = 0.0000-0.5773-0.8520 ( 82244 PWs)   bands (ev):

   -25.2842 -24.9396 -24.6389 -24.5345 -24.1853 -23.7669 -23.6448 -23.5570
   -23.1482 -22.7163 -22.5095 -22.4609 -22.4481 -21.9299 -21.3027 -21.2114
   -20.8855 -20.7703 -20.2505 -20.0076 -19.7157 -19.3686 -19.1495 -18.4909
   -18.3387 -18.3004 -17.6688 -17.5313 -17.0280 -16.9601 -16.7946 -16.4933
   -12.5312 -12.3736 -11.9752 -11.8262 -11.1353 -10.9018 -10.7230 -10.4642
   -10.3051 -10.2507  -9.6995  -9.3513  -9.2466  -9.1526  -8.3553  -8.0069
    -7.7977  -7.5183  -7.2958  -7.2301  -7.1083  -6.9158  -6.7490  -6.5157
    -6.4152  -6.2610  -6.1765  -6.0948  -5.9534  -5.8050  -5.7032  -5.6274
    -5.4824  -5.3301  -5.2613  -5.1688  -5.0878  -5.0061  -4.9953  -4.8770
    -4.7065  -4.6092  -4.4340  -4.3575  -4.3485  -4.2735  -4.2395  -4.1389
    -3.9903  -3.8957  -3.8661  -3.7483  -3.7223  -3.6590  -3.5652  -3.4709
    -3.3905  -3.2134  -3.1960  -3.1011  -2.9701  -2.9555  -2.7723  -2.5612
    -2.4858  -2.3140  -2.2198  -2.1980  -2.0911  -1.9771  -1.9027  -1.8167
    -1.6865  -1.5743  -1.5245  -1.3514  -1.2914  -1.1710  -1.1200  -1.0250
    -0.9877  -0.9354  -0.7760  -0.7352  -0.6893  -0.6325  -0.5270  -0.4773
    -0.3807  -0.2949  -0.2034  -0.1811  -0.1078  -0.0524   0.0648   0.1512
     0.2452   0.3257   0.3953   0.4360   0.5493   0.6389   0.7114   0.7633
     0.9854   1.0497   1.0775   1.1659   1.2991   1.3638   1.5767   1.7794
     1.8085   1.9523   2.2419   2.3588   2.6291   2.7066   2.7309   2.9347
     3.0408   3.2895   3.5940   3.7980   4.0941   4.1929   4.3008   4.3917
     4.5362   4.5938   5.1076   5.2639   5.3343   5.5545   6.0903   6.2801
     6.3921   6.5615   6.6220   6.8819   6.9263   7.1363   7.2649   7.3396

          k = 0.2500 0.1443 0.0000 ( 82151 PWs)   bands (ev):

   -25.2847 -24.9394 -24.6404 -24.5363 -24.1867 -23.7554 -23.6376 -23.5561
   -23.1785 -22.7245 -22.5013 -22.4604 -22.4267 -21.9385 -21.2976 -21.2135
   -20.8845 -20.7688 -20.2718 -19.9688 -19.7168 -19.3679 -19.2046 -18.4607
   -18.3499 -18.2369 -17.6697 -17.5906 -17.0060 -16.9539 -16.8068 -16.4848
   -12.6862 -12.1565 -11.8867 -11.7809 -11.3641 -11.2267 -10.9583 -10.3500
   -10.1752  -9.7033  -9.5509  -9.3839  -9.1018  -8.9797  -8.8174  -8.6307
    -7.7207  -7.5486  -7.2285  -7.0513  -6.9638  -6.8000  -6.6911  -6.5883
    -6.4353  -6.2073  -6.1421  -6.0718  -5.9564  -5.7936  -5.6954  -5.5598
    -5.4985  -5.3841  -5.2991  -5.2060  -5.0645  -4.9963  -4.8866  -4.7979
    -4.6920  -4.5874  -4.5230  -4.4581  -4.3845  -4.3245  -4.1832  -4.0897
    -3.9908  -3.9391  -3.8322  -3.7821  -3.6857  -3.6579  -3.6317  -3.4160
    -3.3689  -3.2693  -3.1612  -3.1299  -3.0457  -2.9032  -2.8390  -2.6994
    -2.5796  -2.4728  -2.3023  -2.2367  -2.1893  -2.0125  -1.8810  -1.8086
    -1.7392  -1.6374  -1.4396  -1.3933  -1.2788  -1.1889  -1.1177  -1.0275
    -0.9483  -0.9306  -0.8547  -0.7551  -0.7001  -0.5822  -0.5435  -0.4930
    -0.3553  -0.3073  -0.1782  -0.0866  -0.0255  -0.0056   0.0729   0.2128
     0.2721   0.2895   0.3781   0.5014   0.5839   0.6344   0.7001   0.7416
     0.8834   0.9595   1.1228   1.2211   1.3235   1.5317   1.6267   1.7022
     1.9227   2.0038   2.2504   2.3309   2.5911   2.6416   2.7516   2.9614
     3.0062   3.3594   3.6257   3.7542   4.1260   4.2423   4.3917   4.4702
     4.5288   4.6433   5.1117   5.2582   5.2852   5.5726   6.2182   6.2910
     6.4063   6.5794   6.6310   6.9030   6.9562   7.2406   7.3096   7.3340

          k = 0.2500 0.1443 0.4260 ( 82218 PWs)   bands (ev):

   -25.2844 -24.9392 -24.6402 -24.5363 -24.1866 -23.7543 -23.6384 -23.5565
   -23.1785 -22.7237 -22.5001 -22.4607 -22.4284 -21.9382 -21.2964 -21.2142
   -20.8855 -20.7688 -20.2727 -19.9689 -19.7173 -19.3682 -19.2050 -18.4612
   -18.3490 -18.2384 -17.6691 -17.5919 -17.0055 -16.9554 -16.8072 -16.4859
   -12.6773 -12.1507 -11.8818 -11.7755 -11.3612 -11.2224 -10.9539 -10.3541
   -10.1754  -9.7096  -9.5569  -9.3839  -9.1045  -8.9881  -8.8138  -8.6305
    -7.7379  -7.5648  -7.2396  -7.0558  -6.9673  -6.8156  -6.6988  -6.5933
    -6.4406  -6.2067  -6.1355  -6.0755  -5.9556  -5.8032  -5.6995  -5.5576
    -5.5068  -5.3790  -5.3007  -5.2079  -5.0587  -4.9865  -4.8822  -4.7926
    -4.6845  -4.5903  -4.5245  -4.4556  -4.3725  -4.3216  -4.1825  -4.0833
    -3.9776  -3.9383  -3.8217  -3.7741  -3.6858  -3.6574  -3.6271  -3.4207
    -3.3739  -3.2653  -3.1664  -3.1260  -3.0395  -2.8808  -2.8284  -2.6860
    -2.5590  -2.4499  -2.2748  -2.2186  -2.1689  -1.9971  -1.8531  -1.8031
    -1.7103  -1.6140  -1.4301  -1.3551  -1.2670  -1.2084  -1.1122  -1.0455
    -0.9374  -0.9121  -0.8563  -0.7662  -0.6760  -0.5995  -0.5309  -0.4931
    -0.3657  -0.3005  -0.2059  -0.1039  -0.0403  -0.0219   0.0450   0.2029
     0.2559   0.2726   0.3489   0.4902   0.5673   0.6149   0.6918   0.7222
     0.8761   0.9467   1.1171   1.2162   1.3226   1.5354   1.6258   1.7023
     1.9266   2.0103   2.2609   2.3376   2.5985   2.6448   2.7577   2.9579
     3.0134   3.3669   3.6195   3.7450   4.1190   4.2353   4.3816   4.4596
     4.5161   4.6368   5.1006   5.2429   5.2743   5.5647   6.1965   6.2813
     6.4070   6.5674   6.6150   6.8938   6.9466   7.1827   7.2688   7.3179

          k = 0.2500 0.1443-0.8520 ( 82212 PWs)   bands (ev):

   -25.2842 -24.9391 -24.6400 -24.5364 -24.1864 -23.7532 -23.6392 -23.5569
   -23.1786 -22.7229 -22.4989 -22.4608 -22.4301 -21.9380 -21.2953 -21.2149
   -20.8865 -20.7688 -20.2735 -19.9690 -19.7177 -19.3685 -19.2054 -18.4617
   -18.3480 -18.2400 -17.6685 -17.5931 -17.0050 -16.9570 -16.8077 -16.4869
   -12.6682 -12.1452 -11.8766 -11.7702 -11.3586 -11.2181 -10.9492 -10.3583
   -10.1753  -9.7159  -9.5640  -9.3844  -9.1078  -8.9948  -8.8095  -8.6302
    -7.7567  -7.5813  -7.2507  -7.0614  -6.9703  -6.8292  -6.7016  -6.6008
    -6.4458  -6.2082  -6.1370  -6.0760  -5.9464  -5.8098  -5.7077  -5.5605
    -5.5098  -5.3838  -5.2919  -5.2021  -5.0592  -4.9907  -4.8772  -4.7953
    -4.6725  -4.5836  -4.5225  -4.4548  -4.3637  -4.3062  -4.1859  -4.0828
    -3.9745  -3.9302  -3.8135  -3.7720  -3.6903  -3.6512  -3.6271  -3.4289
    -3.3710  -3.2508  -3.1657  -3.1175  -3.0347  -2.8558  -2.8140  -2.6637
    -2.5315  -2.4246  -2.2677  -2.1981  -2.1511  -1.9759  -1.8522  -1.7989
    -1.6917  -1.5874  -1.4130  -1.3286  -1.2443  -1.2094  -1.1229  -1.0647
    -0.9185  -0.9039  -0.8425  -0.7735  -0.6638  -0.5943  -0.5253  -0.4885
    -0.3753  -0.3224  -0.2202  -0.1351  -0.0561  -0.0448   0.0378   0.1892
     0.2372   0.2564   0.3261   0.4804   0.5483   0.6003   0.6863   0.7087
     0.8599   0.9396   1.1168   1.2075   1.3136   1.5323   1.6216   1.7072
     1.9328   2.0152   2.2729   2.3440   2.6048   2.6481   2.7635   2.9562
     3.0216   3.3697   3.6167   3.7349   4.1126   4.2227   4.3737   4.4457
     4.5057   4.6304   5.0888   5.2310   5.2602   5.5566   6.1720   6.2720
     6.4056   6.5549   6.5920   6.8701   6.9168   7.0274   7.2194   7.3035

          k = 0.2500 0.4330 0.0000 ( 82224 PWs)   bands (ev):

   -25.2840 -24.9400 -24.6422 -24.5354 -24.1846 -23.7554 -23.6431 -23.5561
   -23.1721 -22.7135 -22.5133 -22.4570 -22.4368 -21.9297 -21.3055 -21.2102
   -20.8846 -20.7692 -20.2618 -19.9870 -19.7151 -19.3678 -19.1839 -18.4671
   -18.3402 -18.2705 -17.6673 -17.5654 -17.0194 -16.9506 -16.8050 -16.4863
   -12.5682 -12.3151 -12.1575 -11.5683 -11.3428 -10.9235 -10.6775 -10.5489
   -10.2473 -10.0127  -9.9330  -9.5691  -8.9725  -8.8741  -8.5548  -8.1060
    -7.7768  -7.4829  -7.3360  -7.2622  -7.0596  -6.8655  -6.6681  -6.5235
    -6.3974  -6.2397  -6.0904  -6.0500  -5.9591  -5.8352  -5.7107  -5.6371
    -5.5743  -5.3414  -5.1752  -5.1002  -5.0754  -5.0361  -4.9389  -4.8166
    -4.7314  -4.6749  -4.5156  -4.4804  -4.4226  -4.2890  -4.2192  -4.1031
    -3.9730  -3.9191  -3.8405  -3.7634  -3.7181  -3.6664  -3.5784  -3.4258
    -3.3702  -3.3087  -3.2059  -3.0838  -3.0181  -2.9158  -2.7812  -2.6353
    -2.5966  -2.3962  -2.2864  -2.2453  -2.0767  -2.0402  -1.8868  -1.8451
    -1.7370  -1.6247  -1.5301  -1.4295  -1.2988  -1.1830  -1.0824  -1.0326
    -0.9738  -0.9293  -0.8215  -0.7544  -0.7061  -0.6047  -0.4910  -0.4724
    -0.3557  -0.2566  -0.1745  -0.0896  -0.0144   0.0103   0.1120   0.1894
     0.2559   0.3561   0.4318   0.4659   0.5126   0.5964   0.7174   0.7673
     0.9201   0.9837   1.1178   1.2189   1.3009   1.4659   1.6541   1.7153
     1.8491   1.9492   2.2146   2.3692   2.5967   2.6941   2.7322   2.9119
     3.0011   3.2644   3.5979   3.7811   4.1186   4.2264   4.3331   4.4674
     4.5671   4.6194   5.1277   5.2404   5.3383   5.5851   6.1996   6.2838
     6.3885   6.5790   6.6345   6.9084   6.9546   7.2438   7.3057   7.3439

          k = 0.2500 0.4330 0.4260 ( 82208 PWs)   bands (ev):

   -25.2839 -24.9398 -24.6419 -24.5356 -24.1845 -23.7551 -23.6433 -23.5564
   -23.1721 -22.7128 -22.5112 -22.4574 -22.4390 -21.9296 -21.3040 -21.2112
   -20.8855 -20.7693 -20.2624 -19.9871 -19.7158 -19.3681 -19.1842 -18.4675
   -18.3404 -18.2709 -17.6671 -17.5662 -17.0187 -16.9526 -16.8055 -16.4872
   -12.5605 -12.3079 -12.1490 -11.5671 -11.3389 -10.9218 -10.6781 -10.5469
   -10.2504 -10.0127  -9.9344  -9.5646  -8.9811  -8.8813  -8.5564  -8.1143
    -7.7924  -7.4934  -7.3464  -7.2708  -7.0595  -6.8780  -6.6760  -6.5307
    -6.4066  -6.2388  -6.0942  -6.0443  -5.9605  -5.8470  -5.7107  -5.6413
    -5.5696  -5.3417  -5.1714  -5.1089  -5.0758  -5.0285  -4.9299  -4.8119
    -4.7327  -4.6742  -4.5089  -4.4728  -4.4041  -4.2830  -4.2151  -4.0883
    -3.9636  -3.9196  -3.8381  -3.7650  -3.7194  -3.6632  -3.5805  -3.4281
    -3.3736  -3.3070  -3.1941  -3.0674  -3.0088  -2.9153  -2.7706  -2.6185
    -2.5741  -2.3648  -2.2635  -2.2302  -2.0506  -2.0225  -1.8823  -1.8328
    -1.7206  -1.5932  -1.5088  -1.4117  -1.2891  -1.1988  -1.0823  -1.0316
    -0.9716  -0.9319  -0.8134  -0.7537  -0.6852  -0.6113  -0.5084  -0.4797
    -0.3619  -0.2636  -0.1986  -0.1065  -0.0372   0.0088   0.0940   0.1765
     0.2464   0.3417   0.4178   0.4618   0.5050   0.5786   0.7058   0.7510
     0.9056   0.9748   1.1122   1.2054   1.3041   1.4651   1.6548   1.7108
     1.8548   1.9541   2.2204   2.3810   2.6055   2.6956   2.7343   2.9182
     3.0048   3.2696   3.5894   3.7728   4.1104   4.2156   4.3195   4.4612
     4.5563   4.6106   5.1169   5.2256   5.3294   5.5753   6.1639   6.2761
     6.3926   6.5711   6.6145   6.8989   6.9447   7.2099   7.2884   7.3353

          k = 0.2500 0.4330-0.8520 ( 82258 PWs)   bands (ev):

   -25.2837 -24.9396 -24.6415 -24.5357 -24.1843 -23.7547 -23.6435 -23.5568
   -23.1720 -22.7122 -22.5090 -22.4579 -22.4412 -21.9295 -21.3025 -21.2123
   -20.8865 -20.7694 -20.2631 -19.9871 -19.7165 -19.3684 -19.1846 -18.4679
   -18.3405 -18.2713 -17.6670 -17.5668 -17.0180 -16.9546 -16.8060 -16.4881
   -12.5527 -12.3008 -12.1403 -11.5660 -11.3352 -10.9198 -10.6789 -10.5452
   -10.2534 -10.0122  -9.9365  -9.5594  -8.9893  -8.8893  -8.5586  -8.1224
    -7.8089  -7.5045  -7.3576  -7.2735  -7.0649  -6.8900  -6.6778  -6.5348
    -6.4158  -6.2445  -6.0957  -6.0428  -5.9575  -5.8532  -5.7191  -5.6390
    -5.5683  -5.3417  -5.1700  -5.1168  -5.0718  -5.0238  -4.9246  -4.8085
    -4.7453  -4.6587  -4.5147  -4.4673  -4.3949  -4.2702  -4.2130  -4.0796
    -3.9561  -3.9153  -3.8224  -3.7614  -3.7216  -3.6483  -3.5842  -3.4281
    -3.3661  -3.3060  -3.1985  -3.0539  -2.9940  -2.9056  -2.7590  -2.6087
    -2.5476  -2.3396  -2.2405  -2.2186  -2.0281  -2.0119  -1.8828  -1.8134
    -1.6927  -1.5647  -1.4839  -1.4045  -1.2820  -1.2095  -1.0900  -1.0281
    -0.9677  -0.9330  -0.8207  -0.7402  -0.6607  -0.6142  -0.5202  -0.4779
    -0.3711  -0.2840  -0.2073  -0.1292  -0.0641  -0.0072   0.0796   0.1648
     0.2364   0.3216   0.4001   0.4553   0.5047   0.5646   0.6910   0.7476
     0.8882   0.9704   1.1078   1.1967   1.3079   1.4584   1.6548   1.7030
     1.8584   1.9596   2.2249   2.3933   2.6106   2.7008   2.7369   2.9230
     3.0112   3.2714   3.5829   3.7659   4.1037   4.2005   4.3047   4.4550
     4.5446   4.6013   5.1063   5.2123   5.3162   5.5670   6.1292   6.2691
     6.3912   6.5440   6.6066   6.8797   6.9307   7.1491   7.2453   7.3236

          k =-0.5000-0.2887 0.0000 ( 82216 PWs)   bands (ev):

   -25.2835 -24.9400 -24.6445 -24.5369 -24.1833 -23.7437 -23.6410 -23.5558
   -23.1960 -22.7097 -22.5130 -22.4547 -22.4291 -21.9294 -21.3052 -21.2110
   -20.8856 -20.7683 -20.2729 -19.9677 -19.7160 -19.3676 -19.2164 -18.4529
   -18.3390 -18.2351 -17.6637 -17.6056 -17.0092 -16.9444 -16.8178 -16.4811
   -12.5567 -12.3982 -11.9466 -11.8364 -11.0597 -10.9159 -10.7688 -10.6508
   -10.3551 -10.1990  -9.5529  -9.3050  -9.1910  -8.9042  -8.6579  -8.1942
    -7.6600  -7.4875  -7.3405  -7.1574  -7.0250  -6.9624  -6.7524  -6.5926
    -6.4288  -6.1610  -6.1479  -6.0398  -5.9297  -5.8322  -5.6761  -5.5389
    -5.4893  -5.3263  -5.2429  -5.1568  -5.0369  -4.9840  -4.9080  -4.7998
    -4.7184  -4.6881  -4.5740  -4.5292  -4.5064  -4.3311  -4.1300  -4.0499
    -4.0099  -3.9390  -3.8796  -3.7816  -3.6892  -3.6617  -3.5100  -3.4038
    -3.3308  -3.2766  -3.2626  -3.1671  -2.9942  -2.9059  -2.8426  -2.6471
    -2.6013  -2.3759  -2.2893  -2.2577  -2.1760  -1.9595  -1.8875  -1.8412
    -1.7362  -1.6369  -1.5100  -1.4032  -1.3590  -1.1940  -1.0677  -1.0292
    -0.9834  -0.9278  -0.8361  -0.7775  -0.6907  -0.5328  -0.5077  -0.4688
    -0.3380  -0.2035  -0.0992  -0.0877  -0.0187   0.0308   0.1074   0.1921
     0.2555   0.3730   0.4001   0.4351   0.5585   0.5921   0.6045   0.7468
     0.9174   0.9291   1.1375   1.2104   1.2646   1.5526   1.6177   1.7875
     1.8565   2.0096   2.2410   2.2874   2.5667   2.6759   2.7737   2.9108
     2.9914   3.2301   3.6037   3.7391   4.1295   4.2182   4.3859   4.5078
     4.5327   4.6537   5.1130   5.2447   5.2846   5.5851   6.2254   6.2862
     6.3796   6.5775   6.6222   6.8930   6.9788   7.2429   7.2910   7.3573

          k =-0.5000-0.2887 0.4260 ( 82214 PWs)   bands (ev):

   -25.2833 -24.9397 -24.6443 -24.5369 -24.1833 -23.7428 -23.6414 -23.5562
   -23.1961 -22.7091 -22.5110 -22.4552 -22.4312 -21.9292 -21.3039 -21.2120
   -20.8866 -20.7684 -20.2736 -19.9676 -19.7166 -19.3679 -19.2169 -18.4531
   -18.3393 -18.2355 -17.6639 -17.6059 -17.0091 -16.9457 -16.8185 -16.4821
   -12.5495 -12.3895 -11.9408 -11.8303 -11.0610 -10.9161 -10.7670 -10.6481
   -10.3563 -10.1963  -9.5597  -9.3058  -9.1917  -8.8987  -8.6752  -8.1993
    -7.6714  -7.5106  -7.3429  -7.1706  -7.0352  -6.9715  -6.7541  -6.5945
    -6.4362  -6.1656  -6.1453  -6.0380  -5.9248  -5.8316  -5.6809  -5.5446
    -5.4805  -5.3304  -5.2473  -5.1518  -5.0450  -4.9791  -4.8998  -4.8032
    -4.7217  -4.6893  -4.5710  -4.5239  -4.4928  -4.3254  -4.1319  -4.0415
    -3.9972  -3.9384  -3.8684  -3.7783  -3.6962  -3.6599  -3.4957  -3.3921
    -3.3302  -3.2840  -3.2567  -3.1530  -2.9891  -2.8922  -2.8144  -2.6432
    -2.5823  -2.3475  -2.2664  -2.2547  -2.1513  -1.9519  -1.8704  -1.8374
    -1.7152  -1.6094  -1.4873  -1.3742  -1.3403  -1.2058  -1.0686  -1.0433
    -0.9741  -0.9250  -0.8268  -0.7860  -0.6702  -0.5473  -0.5018  -0.4809
    -0.3595  -0.2222  -0.1203  -0.0982  -0.0291   0.0130   0.0976   0.1847
     0.2457   0.3577   0.3918   0.4209   0.5460   0.5710   0.5941   0.7391
     0.9095   0.9159   1.1310   1.1948   1.2736   1.5496   1.6138   1.7817
     1.8574   2.0183   2.2500   2.2977   2.5758   2.6783   2.7811   2.9164
     2.9940   3.2312   3.5972   3.7302   4.1218   4.2075   4.3749   4.4934
     4.5268   4.6474   5.1029   5.2309   5.2715   5.5767   6.2008   6.2752
     6.3841   6.5587   6.6063   6.8852   6.9645   7.2068   7.2766   7.3447

          k =-0.5000-0.2887-0.8520 ( 82244 PWs)   bands (ev):

   -25.2831 -24.9395 -24.6441 -24.5369 -24.1833 -23.7420 -23.6418 -23.5566
   -23.1961 -22.7086 -22.5089 -22.4556 -22.4334 -21.9290 -21.3025 -21.2131
   -20.8876 -20.7684 -20.2743 -19.9676 -19.7172 -19.3682 -19.2174 -18.4532
   -18.3397 -18.2359 -17.6641 -17.6062 -17.0089 -16.9470 -16.8191 -16.4830
   -12.5422 -12.3807 -11.9350 -11.8242 -11.0624 -10.9164 -10.7653 -10.6455
   -10.3575 -10.1936  -9.5663  -9.3065  -9.1925  -8.8932  -8.6924  -8.2045
    -7.6831  -7.5337  -7.3453  -7.1834  -7.0461  -6.9798  -6.7557  -6.5961
    -6.4436  -6.1699  -6.1427  -6.0370  -5.9195  -5.8293  -5.6863  -5.5503
    -5.4731  -5.3350  -5.2508  -5.1475  -5.0520  -4.9760  -4.8919  -4.8067
    -4.7280  -4.6880  -4.5648  -4.5164  -4.4804  -4.3202  -4.1378  -4.0334
    -3.9858  -3.9357  -3.8551  -3.7752  -3.7018  -3.6605  -3.4832  -3.3810
    -3.3343  -3.2877  -3.2518  -3.1342  -2.9834  -2.8772  -2.7884  -2.6404
    -2.5562  -2.3252  -2.2546  -2.2337  -2.1239  -1.9436  -1.8501  -1.8352
    -1.6897  -1.5878  -1.4628  -1.3622  -1.3045  -1.2194  -1.0869  -1.0517
    -0.9687  -0.9175  -0.8325  -0.7898  -0.6416  -0.5635  -0.5077  -0.4752
    -0.3827  -0.2417  -0.1406  -0.1095  -0.0405   0.0032   0.0859   0.1759
     0.2359   0.3360   0.3838   0.4114   0.5327   0.5508   0.5861   0.7310
     0.8929   0.9116   1.1252   1.1798   1.2820   1.5462   1.6093   1.7740
     1.8595   2.0272   2.2588   2.3077   2.5846   2.6805   2.7883   2.9217
     2.9968   3.2319   3.5906   3.7210   4.1136   4.1960   4.3633   4.4775
     4.5212   4.6413   5.0924   5.2169   5.2579   5.5681   6.1739   6.2669
     6.3859   6.5273   6.5910   6.8699   6.9449   7.1466   7.2266   7.3232

          k =-0.5000 0.0000 0.0000 ( 82224 PWs)   bands (ev):

   -25.2836 -24.9391 -24.6469 -24.5358 -24.1811 -23.7481 -23.6422 -23.5550
   -23.1858 -22.7196 -22.5052 -22.4592 -22.4370 -21.9188 -21.3177 -21.1983
   -20.8857 -20.7694 -20.2668 -19.9883 -19.7169 -19.3676 -19.1893 -18.4551
   -18.3439 -18.2593 -17.6648 -17.5755 -17.0255 -16.9408 -16.8192 -16.4787
   -12.5789 -12.2802 -12.1847 -11.5215 -11.3822 -10.9091 -10.7530 -10.5657
   -10.1844 -10.0101  -9.8287  -9.6789  -8.8996  -8.7857  -8.6780  -8.1698
    -7.7188  -7.5821  -7.3473  -7.2123  -7.0720  -6.8456  -6.6502  -6.4775
    -6.4020  -6.2519  -6.1089  -6.0012  -5.9734  -5.8630  -5.7507  -5.6453
    -5.5133  -5.3596  -5.2466  -5.1722  -5.0597  -4.9499  -4.8810  -4.7809
    -4.6983  -4.6241  -4.5907  -4.5021  -4.3999  -4.2739  -4.2374  -4.0883
    -3.9811  -3.9065  -3.8649  -3.7690  -3.6949  -3.6749  -3.5913  -3.4845
    -3.3954  -3.2575  -3.1777  -3.1119  -2.9764  -2.9235  -2.7643  -2.6743
    -2.6109  -2.4753  -2.2978  -2.2241  -2.1740  -1.9986  -1.8939  -1.7809
    -1.7295  -1.5925  -1.5079  -1.4601  -1.2737  -1.1957  -1.0945  -1.0518
    -0.9594  -0.9386  -0.8163  -0.7822  -0.6761  -0.5957  -0.5170  -0.4256
    -0.3192  -0.2116  -0.1772  -0.0774  -0.0561   0.0375   0.0908   0.1627
     0.2331   0.3412   0.4255   0.4837   0.5418   0.6293   0.7020   0.7537
     0.8890   0.9552   1.0790   1.2036   1.3556   1.5338   1.5693   1.7871
     1.8746   1.9988   2.1457   2.3824   2.5807   2.6795   2.7217   2.8643
     3.0113   3.2740   3.5857   3.7603   4.1625   4.2448   4.3247   4.4814
     4.5710   4.6412   5.1217   5.2111   5.3474   5.5963   6.1848   6.2707
     6.3508   6.5804   6.6738   6.9045   6.9876   7.2293   7.2891   7.3507

          k =-0.5000 0.0000 0.4260 ( 82208 PWs)   bands (ev):

   -25.2834 -24.9390 -24.6465 -24.5360 -24.1810 -23.7474 -23.6425 -23.5555
   -23.1857 -22.7189 -22.5039 -22.4594 -22.4387 -21.9187 -21.3152 -21.2005
   -20.8866 -20.7694 -20.2675 -19.9885 -19.7173 -19.3679 -19.1898 -18.4554
   -18.3436 -18.2604 -17.6650 -17.5757 -17.0252 -16.9426 -16.8195 -16.4796
   -12.5713 -12.2727 -12.1766 -11.5209 -11.3771 -10.9083 -10.7533 -10.5653
   -10.1875 -10.0090  -9.8293  -9.6753  -8.9075  -8.7900  -8.6835  -8.1780
    -7.7311  -7.5963  -7.3577  -7.2211  -7.0695  -6.8569  -6.6633  -6.4826
    -6.4120  -6.2541  -6.1090  -5.9993  -5.9707  -5.8676  -5.7514  -5.6471
    -5.5170  -5.3601  -5.2404  -5.1749  -5.0552  -4.9483  -4.8782  -4.7766
    -4.6910  -4.6279  -4.5722  -4.4975  -4.3934  -4.2717  -4.2278  -4.0784
    -3.9806  -3.9126  -3.8686  -3.7700  -3.6981  -3.6693  -3.5912  -3.4828
    -3.3780  -3.2542  -3.1671  -3.1024  -2.9597  -2.9170  -2.7491  -2.6516
    -2.5959  -2.4626  -2.2721  -2.2077  -2.1581  -1.9847  -1.8725  -1.7787
    -1.7210  -1.5679  -1.4883  -1.4310  -1.2551  -1.2106  -1.0909  -1.0415
    -0.9707  -0.9301  -0.7997  -0.7747  -0.6713  -0.5953  -0.5309  -0.4343
    -0.3418  -0.2216  -0.1990  -0.0926  -0.0850   0.0274   0.0767   0.1640
     0.2185   0.3255   0.4122   0.4743   0.5254   0.6217   0.6956   0.7458
     0.8773   0.9421   1.0658   1.1927   1.3578   1.5301   1.5623   1.7901
     1.8830   2.0016   2.1544   2.3908   2.5867   2.6831   2.7273   2.8713
     3.0138   3.2757   3.5784   3.7511   4.1544   4.2348   4.3120   4.4739
     4.5605   4.6368   5.1110   5.1962   5.3379   5.5878   6.1447   6.2612
     6.3583   6.5678   6.6603   6.9003   6.9760   7.1891   7.2708   7.3367

          k =-0.5000 0.0000-0.8520 ( 82258 PWs)   bands (ev):

   -25.2832 -24.9388 -24.6460 -24.5361 -24.1810 -23.7467 -23.6428 -23.5561
   -23.1857 -22.7183 -22.5025 -22.4596 -22.4405 -21.9186 -21.3126 -21.2027
   -20.8875 -20.7695 -20.2681 -19.9886 -19.7178 -19.3681 -19.1903 -18.4557
   -18.3433 -18.2614 -17.6651 -17.5760 -17.0249 -16.9443 -16.8199 -16.4806
   -12.5639 -12.2649 -12.1683 -11.5202 -11.3722 -10.9072 -10.7535 -10.5654
   -10.1906 -10.0082  -9.8291  -9.6717  -8.9165  -8.7950  -8.6886  -8.1853
    -7.7436  -7.6117  -7.3702  -7.2250  -7.0710  -6.8625  -6.6802  -6.4874
    -6.4179  -6.2553  -6.1082  -6.0023  -5.9696  -5.8661  -5.7583  -5.6440
    -5.5170  -5.3562  -5.2386  -5.1849  -5.0567  -4.9420  -4.8670  -4.7806
    -4.6909  -4.6130  -4.5706  -4.4963  -4.3947  -4.2705  -4.2291  -4.0728
    -3.9706  -3.9011  -3.8593  -3.7630  -3.6943  -3.6633  -3.5910  -3.4752
    -3.3724  -3.2524  -3.1705  -3.1020  -2.9401  -2.8970  -2.7397  -2.6345
    -2.5852  -2.4568  -2.2496  -2.1930  -2.1275  -1.9620  -1.8578  -1.7665
    -1.6810  -1.5576  -1.4688  -1.4011  -1.2591  -1.2247  -1.0872  -1.0426
    -0.9786  -0.9027  -0.8217  -0.7514  -0.6642  -0.5886  -0.5459  -0.4378
    -0.3687  -0.2331  -0.2178  -0.1206  -0.0919   0.0103   0.0674   0.1613
     0.2017   0.3116   0.4006   0.4675   0.5003   0.6098   0.6829   0.7340
     0.8674   0.9342   1.0576   1.1886   1.3647   1.5206   1.5644   1.7876
     1.8897   2.0037   2.1604   2.3988   2.5907   2.6890   2.7334   2.8778
     3.0153   3.2783   3.5705   3.7433   4.1475   4.2251   4.2975   4.4655
     4.5474   4.6320   5.1013   5.1819   5.3239   5.5807   6.1078   6.2522
     6.3600   6.5422   6.6507   6.8920   6.9581   7.1122   7.2079   7.3140

          k = 0.0000-0.2887 0.4260 ( 82218 PWs)   bands (ev):

   -25.2850 -24.9393 -24.6377 -24.5349 -24.1878 -23.7659 -23.6404 -23.5567
   -23.1545 -22.7280 -22.4984 -22.4649 -22.4363 -21.9383 -21.2968 -21.2132
   -20.8845 -20.7697 -20.2613 -19.9886 -19.7164 -19.3684 -19.1710 -18.4797
   -18.3511 -18.2688 -17.6700 -17.5554 -17.0166 -16.9590 -16.7960 -16.4910
   -12.6743 -12.1349 -11.9174 -11.7734 -11.3860 -11.2079 -10.9282 -10.3072
   -10.0879  -9.7791  -9.7079  -9.2732  -9.2195  -9.0565  -8.7613  -8.5395
    -7.7078  -7.4664  -7.2610  -7.0338  -6.9723  -6.8826  -6.7110  -6.5537
    -6.4024  -6.3534  -6.1929  -6.0343  -5.9101  -5.7988  -5.7042  -5.5507
    -5.5183  -5.4056  -5.2750  -5.1629  -5.0794  -5.0059  -4.9311  -4.8460
    -4.7093  -4.6220  -4.5274  -4.3665  -4.3060  -4.2484  -4.2027  -4.0846
    -4.0084  -3.9350  -3.8726  -3.7587  -3.6808  -3.6587  -3.5937  -3.4783
    -3.4034  -3.2340  -3.1685  -3.0903  -3.0022  -2.9163  -2.8432  -2.6646
    -2.5485  -2.3982  -2.2803  -2.2029  -2.1432  -1.9741  -1.8973  -1.8303
    -1.7160  -1.6340  -1.4540  -1.3256  -1.2646  -1.1609  -1.1037  -1.0465
    -0.9610  -0.9056  -0.8461  -0.7511  -0.6749  -0.6117  -0.5742  -0.4723
    -0.3870  -0.3395  -0.2454  -0.1340  -0.0777  -0.0076   0.0327   0.1309
     0.2668   0.3232   0.3554   0.4766   0.5830   0.6767   0.7325   0.7631
     0.8914   1.0477   1.1293   1.1730   1.2732   1.4424   1.5775   1.7408
     1.9084   2.0036   2.2224   2.4122   2.6034   2.6470   2.7624   2.8979
     3.0714   3.3975   3.6135   3.7824   4.1104   4.2340   4.3627   4.4041
     4.5147   4.6252   5.1095   5.2731   5.3047   5.5554   6.1642   6.2871
     6.4221   6.5720   6.6239   6.8983   6.9326   7.1806   7.2710   7.3370

          k =-0.2500 0.1443 0.0000 ( 82151 PWs)   bands (ev):

   -25.2848 -24.9385 -24.6428 -24.5352 -24.1845 -23.7598 -23.6387 -23.5554
   -23.1681 -22.7341 -22.4893 -22.4698 -22.4349 -21.9276 -21.3110 -21.1997
   -20.8845 -20.7698 -20.2656 -19.9897 -19.7177 -19.3678 -19.1767 -18.4657
   -18.3557 -18.2577 -17.6690 -17.5630 -17.0225 -16.9503 -16.8080 -16.4823
   -12.6871 -12.1274 -11.9411 -11.7570 -11.3566 -11.2650 -10.9410 -10.3063
   -10.1425  -9.7432  -9.4736  -9.4209  -9.2494  -9.0253  -8.7280  -8.6080
    -7.6765  -7.4259  -7.3474  -7.1223  -6.9010  -6.7924  -6.7393  -6.5354
    -6.4366  -6.2225  -6.1357  -6.0549  -5.9439  -5.8246  -5.7355  -5.5845
    -5.5114  -5.3889  -5.2946  -5.2252  -5.0574  -4.9916  -4.8857  -4.7898
    -4.7059  -4.5530  -4.5062  -4.4291  -4.4037  -4.2722  -4.1719  -4.0626
    -3.9957  -3.9270  -3.8705  -3.7824  -3.7522  -3.6343  -3.5697  -3.5145
    -3.4158  -3.2379  -3.1621  -3.1238  -2.9876  -2.8894  -2.8272  -2.7188
    -2.6035  -2.4587  -2.3315  -2.2713  -2.1719  -1.9791  -1.9168  -1.8020
    -1.7253  -1.5991  -1.4450  -1.3984  -1.2413  -1.1805  -1.1175  -1.0253
    -0.9919  -0.9015  -0.8746  -0.7856  -0.6640  -0.5814  -0.5174  -0.4712
    -0.3745  -0.2833  -0.2184  -0.1748  -0.0543   0.0006   0.0632   0.1399
     0.2594   0.3103   0.4236   0.5057   0.6266   0.6475   0.7276   0.7722
     0.9438   1.0082   1.0871   1.1454   1.3253   1.4943   1.5734   1.7553
     1.9388   2.0156   2.2071   2.3789   2.5564   2.6414   2.7497   2.8935
     3.0553   3.3887   3.6044   3.7742   4.1616   4.2692   4.3463   4.4456
     4.5254   4.6557   5.1109   5.2433   5.3425   5.5745   6.1850   6.2766
     6.3743   6.5920   6.6729   6.9135   6.9644   7.2271   7.2986   7.3373

          k =-0.2500-0.1443 0.4260 ( 82218 PWs)   bands (ev):

   -25.2844 -24.9392 -24.6402 -24.5363 -24.1866 -23.7543 -23.6384 -23.5565
   -23.1785 -22.7237 -22.5001 -22.4606 -22.4284 -21.9382 -21.2965 -21.2142
   -20.8855 -20.7688 -20.2727 -19.9689 -19.7173 -19.3682 -19.2050 -18.4612
   -18.3489 -18.2384 -17.6692 -17.5918 -17.0055 -16.9554 -16.8072 -16.4858
   -12.6772 -12.1509 -11.8815 -11.7756 -11.3616 -11.2224 -10.9536 -10.3541
   -10.1751  -9.7096  -9.5579  -9.3845  -9.1049  -8.9865  -8.8132  -8.6306
    -7.7395  -7.5651  -7.2396  -7.0561  -6.9671  -6.8132  -6.6944  -6.5964
    -6.4408  -6.2091  -6.1434  -6.0726  -5.9475  -5.7990  -5.7057  -5.5611
    -5.5018  -5.3892  -5.2899  -5.2003  -5.0637  -5.0007  -4.8807  -4.8023
    -4.6811  -4.5805  -4.5166  -4.4583  -4.3732  -4.3125  -4.1825  -4.0902
    -3.9874  -3.9327  -3.8187  -3.7855  -3.6874  -3.6573  -3.6303  -3.4242
    -3.3657  -3.2551  -3.1610  -3.1211  -3.0409  -2.8774  -2.8252  -2.6787
    -2.5570  -2.4491  -2.2939  -2.2168  -2.1749  -1.9914  -1.8798  -1.8070
    -1.7212  -1.6062  -1.4217  -1.3577  -1.2549  -1.1971  -1.1223  -1.0494
    -0.9285  -0.9177  -0.8468  -0.7580  -0.6856  -0.5757  -0.5371  -0.4941
    -0.3661  -0.3316  -0.1920  -0.1159  -0.0405  -0.0303   0.0590   0.2042
     0.2513   0.2712   0.3571   0.4932   0.5665   0.6186   0.6957   0.7264
     0.8675   0.9522   1.1227   1.2112   1.3149   1.5293   1.6234   1.7064
     1.9295   2.0082   2.2630   2.3373   2.5978   2.6450   2.7569   2.9604
     3.0143   3.3627   3.6228   3.7444   4.1198   4.2304   4.3848   4.4570
     4.5184   4.6369   5.1004   5.2466   5.2713   5.5648   6.1949   6.2809
     6.4069   6.5746   6.6112   6.8936   6.9461   7.1804   7.2667   7.3192

          k =-0.2500 0.1443-0.4260 ( 82218 PWs)   bands (ev):

   -25.2846 -24.9385 -24.6424 -24.5354 -24.1843 -23.7588 -23.6394 -23.5559
   -23.1680 -22.7333 -22.4895 -22.4690 -22.4362 -21.9274 -21.3086 -21.2017
   -20.8855 -20.7698 -20.2664 -19.9900 -19.7179 -19.3682 -19.1770 -18.4662
   -18.3542 -18.2598 -17.6685 -17.5640 -17.0219 -16.9522 -16.8082 -16.4833
   -12.6783 -12.1207 -11.9375 -11.7504 -11.3549 -11.2617 -10.9358 -10.3097
   -10.1415  -9.7504  -9.4766  -9.4279  -9.2500  -9.0277  -8.7296  -8.6077
    -7.6926  -7.4389  -7.3674  -7.1289  -6.9022  -6.7956  -6.7474  -6.5393
    -6.4434  -6.2241  -6.1384  -6.0539  -5.9460  -5.8259  -5.7503  -5.5829
    -5.5166  -5.3963  -5.2899  -5.2203  -5.0558  -4.9743  -4.8882  -4.7862
    -4.6921  -4.5648  -4.5068  -4.4261  -4.3838  -4.2590  -4.1555  -4.0668
    -3.9916  -3.9162  -3.8680  -3.7874  -3.7416  -3.6290  -3.5672  -3.5216
    -3.4198  -3.2374  -3.1690  -3.1266  -2.9760  -2.8672  -2.8044  -2.7070
    -2.5918  -2.4468  -2.3013  -2.2452  -2.1582  -1.9627  -1.8941  -1.7811
    -1.7105  -1.5779  -1.4274  -1.3646  -1.2423  -1.1869  -1.1235  -1.0143
    -0.9972  -0.8921  -0.8597  -0.7746  -0.6357  -0.5916  -0.5212  -0.4756
    -0.3927  -0.2967  -0.2497  -0.1772  -0.0688  -0.0155   0.0342   0.1360
     0.2423   0.2904   0.3928   0.4904   0.6144   0.6400   0.7020   0.7522
     0.9308   1.0128   1.0796   1.1386   1.3270   1.4912   1.5744   1.7626
     1.9438   2.0182   2.2170   2.3860   2.5584   2.6443   2.7584   2.8952
     3.0575   3.3959   3.5973   3.7662   4.1560   4.2609   4.3377   4.4315
     4.5154   4.6491   5.1029   5.2290   5.3292   5.5663   6.1555   6.2660
     6.3771   6.5827   6.6614   6.9060   6.9595   7.1549   7.2692   7.3144

          k = 0.2500-0.1443-0.4260 ( 82218 PWs)   bands (ev):

   -25.2846 -24.9385 -24.6424 -24.5354 -24.1843 -23.7588 -23.6394 -23.5559
   -23.1680 -22.7333 -22.4895 -22.4690 -22.4362 -21.9274 -21.3087 -21.2017
   -20.8855 -20.7698 -20.2664 -19.9900 -19.7179 -19.3682 -19.1770 -18.4662
   -18.3542 -18.2598 -17.6686 -17.5639 -17.0218 -16.9523 -16.8083 -16.4833
   -12.6781 -12.1209 -11.9376 -11.7505 -11.3546 -11.2615 -10.9357 -10.3099
   -10.1417  -9.7502  -9.4766  -9.4277  -9.2488  -9.0296  -8.7299  -8.6081
    -7.6909  -7.4359  -7.3694  -7.1267  -6.9025  -6.8031  -6.7479  -6.5353
    -6.4384  -6.2222  -6.1497  -6.0584  -5.9391  -5.8245  -5.7481  -5.5827
    -5.5171  -5.3874  -5.3009  -5.2129  -5.0465  -4.9958  -4.8916  -4.7869
    -4.6938  -4.5440  -4.5028  -4.4202  -4.3792  -4.2759  -4.1639  -4.0687
    -4.0059  -3.9112  -3.8678  -3.7798  -3.7525  -3.6272  -3.5711  -3.5173
    -3.4058  -3.2273  -3.1724  -3.1177  -2.9835  -2.8713  -2.8099  -2.7033
    -2.5837  -2.4444  -2.3178  -2.2345  -2.1581  -1.9571  -1.9178  -1.7789
    -1.7150  -1.5753  -1.4246  -1.3674  -1.2222  -1.1985  -1.0991  -1.0390
    -1.0001  -0.8810  -0.8629  -0.7712  -0.6440  -0.5847  -0.5237  -0.4682
    -0.4000  -0.2836  -0.2449  -0.1859  -0.0740  -0.0274   0.0295   0.1356
     0.2414   0.2913   0.4015   0.4867   0.6141   0.6500   0.7125   0.7484
     0.9394   1.0068   1.0743   1.1336   1.3221   1.4914   1.5724   1.7615
     1.9423   2.0243   2.2155   2.3876   2.5605   2.6433   2.7569   2.8969
     3.0586   3.3926   3.6010   3.7634   4.1570   4.2566   4.3389   4.4328
     4.5176   4.6500   5.0987   5.2301   5.3319   5.5654   6.1529   6.2648
     6.3774   6.5845   6.6614   6.9062   6.9598   7.1570   7.2712   7.3161

          k =-0.2500 0.1443 0.8520 ( 82212 PWs)   bands (ev):

   -25.2843 -24.9385 -24.6419 -24.5355 -24.1841 -23.7578 -23.6401 -23.5564
   -23.1680 -22.7325 -22.4896 -22.4681 -22.4376 -21.9273 -21.3062 -21.2038
   -20.8865 -20.7699 -20.2671 -19.9903 -19.7182 -19.3685 -19.1774 -18.4667
   -18.3526 -18.2621 -17.6681 -17.5650 -17.0211 -16.9542 -16.8085 -16.4843
   -12.6692 -12.1141 -11.9341 -11.7439 -11.3529 -11.2581 -10.9305 -10.3134
   -10.1407  -9.7575  -9.4797  -9.4347  -9.2492  -9.0321  -8.7313  -8.6077
    -7.7068  -7.4501  -7.3880  -7.1338  -6.9045  -6.8054  -6.7563  -6.5390
    -6.4449  -6.2241  -6.1521  -6.0573  -5.9410  -5.8268  -5.7604  -5.5822
    -5.5210  -5.3956  -5.2961  -5.2087  -5.0455  -4.9805  -4.8893  -4.7851
    -4.6805  -4.5570  -4.5026  -4.4164  -4.3630  -4.2634  -4.1475  -4.0739
    -4.0007  -3.9021  -3.8635  -3.7852  -3.7403  -3.6217  -3.5690  -3.5237
    -3.4105  -3.2276  -3.1788  -3.1204  -2.9716  -2.8528  -2.7823  -2.6868
    -2.5689  -2.4312  -2.2893  -2.2071  -2.1436  -1.9403  -1.8969  -1.7535
    -1.6984  -1.5620  -1.4105  -1.3238  -1.2578  -1.1782  -1.1174  -1.0209
    -1.0005  -0.8753  -0.8465  -0.7657  -0.6134  -0.5938  -0.5285  -0.4747
    -0.4131  -0.3007  -0.2745  -0.1877  -0.0910  -0.0372   0.0002   0.1323
     0.2248   0.2720   0.3701   0.4724   0.6007   0.6407   0.6858   0.7296
     0.9259   1.0095   1.0694   1.1266   1.3243   1.4869   1.5737   1.7687
     1.9468   2.0273   2.2250   2.3945   2.5622   2.6460   2.7659   2.8980
     3.0610   3.3992   3.5940   3.7551   4.1512   4.2473   4.3301   4.4181
     4.5073   4.6432   5.0903   5.2156   5.3183   5.5564   6.1215   6.2540
     6.3783   6.5728   6.6476   6.8885   6.9460   6.9825   7.2190   7.2945

          k =-0.2500 0.4330 0.0000 ( 82224 PWs)   bands (ev):

   -25.2842 -24.9391 -24.6446 -24.5344 -24.1823 -23.7599 -23.6439 -23.5554
   -23.1617 -22.7236 -22.5043 -22.4646 -22.4429 -21.9191 -21.3179 -21.1976
   -20.8846 -20.7702 -20.2545 -20.0084 -19.7160 -19.3677 -19.1556 -18.4738
   -18.3456 -18.2894 -17.6677 -17.5372 -17.0359 -16.9478 -16.8063 -16.4837
   -12.5723 -12.2863 -12.1813 -11.5854 -11.3055 -11.0454 -10.5726 -10.4672
   -10.2399 -10.1254  -9.8546  -9.6367  -9.0259  -8.7627  -8.6880  -8.0455
    -7.5874  -7.5256  -7.4550  -7.2817  -7.0563  -6.7979  -6.6548  -6.5093
    -6.4111  -6.3069  -6.1508  -6.0647  -5.9262  -5.8451  -5.6936  -5.6176
    -5.5048  -5.4130  -5.2347  -5.1358  -5.0514  -4.9932  -4.9563  -4.8540
    -4.6995  -4.6376  -4.5216  -4.4673  -4.3689  -4.2788  -4.2372  -4.0607
    -3.9749  -3.9196  -3.8425  -3.8103  -3.7090  -3.6568  -3.5662  -3.5041
    -3.4286  -3.2625  -3.1540  -3.0833  -2.9901  -2.9186  -2.7434  -2.7197
    -2.6024  -2.3767  -2.2979  -2.2345  -2.1511  -1.9920  -1.8823  -1.7982
    -1.7414  -1.6473  -1.5296  -1.4071  -1.2640  -1.1752  -1.1015  -1.0481
    -0.9656  -0.9372  -0.7947  -0.7745  -0.6759  -0.6173  -0.4916  -0.4292
    -0.3939  -0.2743  -0.2089  -0.1122  -0.0721   0.0175   0.0858   0.1602
     0.2507   0.3780   0.3976   0.4878   0.5947   0.6321   0.7305   0.8260
     0.9366   0.9678   1.0812   1.2372   1.2870   1.4465   1.5718   1.7421
     1.8662   2.0001   2.1772   2.3836   2.5998   2.6820   2.7343   2.8037
     3.0762   3.2902   3.5795   3.7992   4.1554   4.2344   4.3290   4.4169
     4.5543   4.6432   5.1244   5.2444   5.3792   5.5878   6.1601   6.2768
     6.3568   6.5913   6.6733   6.9193   6.9622   7.2291   7.2966   7.3467

          k =-0.2500-0.4330 0.4260 ( 82208 PWs)   bands (ev):

   -25.2839 -24.9398 -24.6419 -24.5356 -24.1845 -23.7550 -23.6433 -23.5564
   -23.1721 -22.7129 -22.5112 -22.4574 -22.4390 -21.9296 -21.3040 -21.2112
   -20.8856 -20.7693 -20.2624 -19.9871 -19.7158 -19.3681 -19.1842 -18.4675
   -18.3403 -18.2709 -17.6672 -17.5661 -17.0187 -16.9526 -16.8055 -16.4872
   -12.5605 -12.3080 -12.1489 -11.5671 -11.3390 -10.9214 -10.6782 -10.5472
   -10.2504 -10.0121  -9.9352  -9.5639  -8.9808  -8.8823  -8.5569  -8.1144
    -7.7932  -7.4938  -7.3473  -7.2649  -7.0639  -6.8789  -6.6697  -6.5273
    -6.4074  -6.2454  -6.0931  -6.0478  -5.9559  -5.8416  -5.7195  -5.6347
    -5.5726  -5.3416  -5.1750  -5.1049  -5.0717  -5.0321  -4.9337  -4.8137
    -4.7424  -4.6620  -4.5175  -4.4748  -4.4139  -4.2780  -4.2140  -4.0955
    -3.9653  -3.9156  -3.8249  -3.7597  -3.7148  -3.6572  -3.5819  -3.4243
    -3.3657  -3.3057  -3.2077  -3.0725  -3.0047  -2.9070  -2.7668  -2.6256
    -2.5776  -2.3685  -2.2628  -2.2358  -2.0606  -2.0303  -1.8814  -1.8309
    -1.7099  -1.5965  -1.5044  -1.4228  -1.2890  -1.1902  -1.0763  -1.0346
    -0.9664  -0.9348  -0.8213  -0.7426  -0.6820  -0.6094  -0.5013  -0.4728
    -0.3669  -0.2774  -0.1860  -0.1124  -0.0442  -0.0069   0.0970   0.1791
     0.2464   0.3366   0.4163   0.4671   0.5012   0.5828   0.7027   0.7634
     0.9027   0.9808   1.1123   1.2097   1.3053   1.4588   1.6562   1.7078
     1.8522   1.9539   2.2193   2.3818   2.6020   2.6995   2.7349   2.9176
     3.0068   3.2664   3.5917   3.7744   4.1125   4.2120   4.3191   4.4612
     4.5569   4.6097   5.1175   5.2276   5.3256   5.5774   6.1665   6.2775
     6.3885   6.5634   6.6241   6.8973   6.9437   7.2114   7.2868   7.3353

          k =-0.2500 0.4330-0.4260 ( 82208 PWs)   bands (ev):

   -25.2840 -24.9390 -24.6440 -24.5346 -24.1821 -23.7596 -23.6440 -23.5559
   -23.1616 -22.7229 -22.5030 -22.4648 -22.4446 -21.9191 -21.3153 -21.1998
   -20.8855 -20.7703 -20.2551 -20.0087 -19.7165 -19.3680 -19.1559 -18.4741
   -18.3450 -18.2906 -17.6676 -17.5378 -17.0352 -16.9501 -16.8066 -16.4846
   -12.5648 -12.2782 -12.1734 -11.5841 -11.3005 -11.0478 -10.5705 -10.4634
   -10.2436 -10.1266  -9.8553  -9.6336  -9.0342  -8.7668  -8.6935  -8.0545
    -7.5990  -7.5399  -7.4638  -7.2908  -7.0574  -6.8032  -6.6689  -6.5128
    -6.4189  -6.3107  -6.1492  -6.0670  -5.9266  -5.8484  -5.7020  -5.6177
    -5.5130  -5.4154  -5.2323  -5.1320  -5.0524  -4.9916  -4.9429  -4.8441
    -4.7026  -4.6337  -4.5220  -4.4583  -4.3449  -4.2614  -4.2216  -4.0546
    -3.9774  -3.9220  -3.8528  -3.8004  -3.7111  -3.6558  -3.5681  -3.5016
    -3.4252  -3.2615  -3.1550  -3.0748  -2.9709  -2.9091  -2.7416  -2.6984
    -2.5806  -2.3582  -2.2694  -2.2182  -2.1278  -1.9754  -1.8717  -1.7909
    -1.7312  -1.6122  -1.5036  -1.3926  -1.2686  -1.1866  -1.0894  -1.0559
    -0.9618  -0.9182  -0.7812  -0.7559  -0.6702  -0.6248  -0.5110  -0.4457
    -0.4138  -0.2913  -0.2114  -0.1326  -0.0911   0.0115   0.0749   0.1510
     0.2392   0.3574   0.3830   0.4643   0.6003   0.6214   0.7114   0.8075
     0.9313   0.9590   1.0722   1.2301   1.2858   1.4440   1.5721   1.7494
     1.8639   2.0032   2.1877   2.3924   2.6034   2.6875   2.7354   2.8081
     3.0810   3.2958   3.5706   3.7917   4.1488   4.2214   4.3150   4.4096
     4.5476   4.6328   5.1173   5.2292   5.3693   5.5778   6.1189   6.2676
     6.3620   6.5825   6.6603   6.9100   6.9546   7.1865   7.2826   7.3426

          k = 0.2500-0.4330-0.4260 ( 82208 PWs)   bands (ev):

   -25.2840 -24.9390 -24.6440 -24.5346 -24.1821 -23.7596 -23.6440 -23.5559
   -23.1616 -22.7229 -22.5029 -22.4649 -22.4446 -21.9191 -21.3153 -21.1997
   -20.8856 -20.7703 -20.2551 -20.0087 -19.7165 -19.3680 -19.1559 -18.4742
   -18.3451 -18.2905 -17.6677 -17.5377 -17.0351 -16.9502 -16.8066 -16.4846
   -12.5647 -12.2784 -12.1735 -11.5842 -11.3003 -11.0476 -10.5704 -10.4637
   -10.2440 -10.1262  -9.8554  -9.6334  -9.0345  -8.7675  -8.6936  -8.0549
    -7.5996  -7.5407  -7.4611  -7.2900  -7.0571  -6.8093  -6.6656  -6.5086
    -6.4144  -6.3051  -6.1570  -6.0745  -5.9219  -5.8517  -5.6951  -5.6253
    -5.5034  -5.4094  -5.2358  -5.1411  -5.0412  -5.0037  -4.9527  -4.8547
    -4.6908  -4.6269  -4.5165  -4.4524  -4.3621  -4.2638  -4.2376  -4.0594
    -3.9678  -3.9130  -3.8448  -3.7926  -3.7136  -3.6533  -3.5568  -3.4998
    -3.4269  -3.2606  -3.1587  -3.0726  -2.9768  -2.9169  -2.7363  -2.7076
    -2.5807  -2.3536  -2.2759  -2.2193  -2.1363  -1.9709  -1.8708  -1.7899
    -1.7169  -1.6184  -1.5025  -1.3945  -1.2480  -1.1902  -1.1094  -1.0457
    -0.9737  -0.9174  -0.7769  -0.7622  -0.6690  -0.6168  -0.4945  -0.4471
    -0.4070  -0.2901  -0.2240  -0.1326  -0.0912  -0.0017   0.0665   0.1433
     0.2400   0.3594   0.3838   0.4696   0.5967   0.6231   0.7183   0.8149
     0.9242   0.9626   1.0724   1.2289   1.2935   1.4360   1.5729   1.7470
     1.8662   2.0017   2.1841   2.3944   2.6043   2.6871   2.7352   2.8109
     3.0809   3.2943   3.5725   3.7912   4.1513   4.2178   4.3175   4.4082
     4.5471   4.6344   5.1131   5.2315   5.3688   5.5789   6.1196   6.2678
     6.3591   6.5788   6.6644   6.9100   6.9540   7.1893   7.2858   7.3392

          k =-0.2500 0.4330 0.8520 ( 82258 PWs)   bands (ev):

   -25.2838 -24.9389 -24.6434 -24.5349 -24.1819 -23.7594 -23.6442 -23.5563
   -23.1615 -22.7222 -22.5015 -22.4650 -22.4464 -21.9190 -21.3126 -21.2020
   -20.8865 -20.7704 -20.2556 -20.0089 -19.7169 -19.3683 -19.1562 -18.4745
   -18.3445 -18.2918 -17.6675 -17.5383 -17.0343 -16.9526 -16.8068 -16.4855
[...]
   -21.8491 -21.7750 -21.7518 -21.6892 -21.5849 -21.5341 -21.4898 -21.4410
   -21.3916 -21.3639 -21.2861 -21.2110 -21.1653 -21.0983 -21.0125 -20.9674
   -20.9254 -20.8408 -20.7696 -20.7329 -20.6641 -20.6246 -20.5047 -20.3546
   -12.3492 -12.0560 -11.9778 -11.4182 -11.1947 -10.9057 -10.6450 -10.5673
   -10.1927 -10.1179 -10.0242  -9.8126  -9.1518  -9.0090  -8.9722  -8.5017
    -8.0350  -7.9396  -7.8093  -7.7423  -7.3621  -7.1514  -6.8521  -6.7152
    -6.4484  -6.3945  -6.0422  -5.9604  -5.6841  -5.5765  -5.3934  -5.2630
    -5.1451  -5.0944  -5.0073  -4.9342  -4.8603  -4.7626  -4.7151  -4.6698
    -4.6269  -4.5293  -4.4852  -4.3994  -4.3703  -4.3033  -4.2243  -4.1861
    -4.1054  -4.0034  -3.9219  -3.8883  -3.7768  -3.7424  -3.6981  -3.6193
    -3.5374  -3.5002  -3.4336  -3.3755  -3.3275  -3.2317  -3.1746  -3.1362
    -3.0873  -3.0092  -2.9431  -2.8942  -2.8397  -2.7609  -2.6943  -2.6386
    -2.5715  -2.5069  -2.4670  -2.3657  -2.3585  -2.1760  -2.0759  -1.9846
    -1.4641  -1.3933  -1.3062  -1.2110  -1.1482  -1.0627  -1.0021  -0.9494
    -0.9084  -0.8213  -0.7981  -0.7051  -0.6637  -0.5905  -0.5107  -0.4435
    -0.3864  -0.3580  -0.2982  -0.2488  -0.1673  -0.1423  -0.1031  -0.0676
    -0.0246   0.0448   0.0581   0.1100   0.1432   0.1655   0.2301   0.2653
     0.3182   0.4078   0.4268   0.4667   0.5534   0.5811   0.6243   0.6988
     0.7328   0.7718   0.8788   0.9018   0.9620   0.9785   1.0354   1.1110
     1.1397   1.2251   1.2723   1.3673   1.4263   1.4842   1.5469   1.6346
     1.6576   1.8002   1.8457   1.9212   2.1312   2.2470   2.3614   2.6380

          k = 0.2511-0.4431-0.3825 ( 88732 PWs)   bands (ev):

   -22.5477 -22.4098 -22.3640 -22.2036 -22.1243 -22.0340 -21.9831 -21.9159
   -21.8516 -21.7742 -21.7528 -21.6888 -21.5855 -21.5336 -21.4914 -21.4409
   -21.3911 -21.3647 -21.2850 -21.2130 -21.1631 -21.0991 -21.0129 -20.9667
   -20.9242 -20.8416 -20.7687 -20.7344 -20.6640 -20.6246 -20.5046 -20.3545
   -12.3489 -12.0572 -11.9772 -11.4178 -11.1953 -10.9074 -10.6419 -10.5664
   -10.1913 -10.1193 -10.0276  -9.8091  -9.1522  -9.0149  -8.9732  -8.4984
    -8.0319  -7.9336  -7.8149  -7.7437  -7.3623  -7.1471  -6.8593  -6.7189
    -6.4467  -6.3815  -6.0492  -5.9563  -5.6762  -5.5823  -5.4007  -5.2765
    -5.1482  -5.0799  -5.0189  -4.9142  -4.8947  -4.7589  -4.7207  -4.6578
    -4.6071  -4.5278  -4.4627  -4.4109  -4.3693  -4.2930  -4.2105  -4.1947
    -4.1084  -4.0312  -3.9422  -3.8745  -3.7960  -3.7350  -3.6833  -3.6233
    -3.5457  -3.5087  -3.4170  -3.3729  -3.3262  -3.2239  -3.1748  -3.1549
    -3.0746  -2.9826  -2.9609  -2.9172  -2.8208  -2.7818  -2.6739  -2.6382
    -2.5620  -2.5119  -2.4619  -2.3767  -2.3547  -2.1798  -2.0841  -1.9736
    -1.4663  -1.3941  -1.3030  -1.2157  -1.1438  -1.0665  -1.0032  -0.9470
    -0.9075  -0.8160  -0.7997  -0.7109  -0.6648  -0.5884  -0.5088  -0.4433
    -0.3896  -0.3585  -0.3008  -0.2446  -0.1691  -0.1457  -0.0994  -0.0675
    -0.0294   0.0392   0.0601   0.1076   0.1446   0.1703   0.2321   0.2674
     0.3212   0.3984   0.4279   0.4697   0.5550   0.5842   0.6228   0.6991
     0.7326   0.7720   0.8788   0.9017   0.9601   0.9781   1.0408   1.1096
     1.1414   1.2233   1.2772   1.3653   1.4268   1.4842   1.5435   1.6377
     1.6553   1.7994   1.8535   1.9171   2.1222   2.2472   2.3623   2.6395

          k =-0.2523 0.4413 0.7661 ( 88776 PWs)   bands (ev):

   -22.5433 -22.4069 -22.3611 -22.2041 -22.1281 -22.0340 -21.9849 -21.9216
   -21.8480 -21.7756 -21.7544 -21.6874 -21.5860 -21.5347 -21.4912 -21.4404
   -21.3904 -21.3641 -21.2868 -21.2131 -21.1643 -21.0987 -21.0136 -20.9678
   -20.9249 -20.8415 -20.7697 -20.7325 -20.6652 -20.6234 -20.5046 -20.3537
   -12.3397 -12.0476 -11.9684 -11.4128 -11.1886 -10.9037 -10.6413 -10.5677
   -10.1919 -10.1175 -10.0304  -9.8119  -9.1611  -9.0173  -8.9743  -8.5055
    -8.0378  -7.9433  -7.8126  -7.7477  -7.3643  -7.1567  -6.8586  -6.7234
    -6.4463  -6.3976  -6.0525  -5.9657  -5.6781  -5.5836  -5.4053  -5.2745
    -5.1535  -5.0969  -5.0098  -4.9397  -4.8746  -4.7649  -4.7276  -4.6613
    -4.6216  -4.5323  -4.4745  -4.4108  -4.3666  -4.3065  -4.2148  -4.1908
    -4.1299  -4.0176  -3.9314  -3.8886  -3.7752  -3.7359  -3.7034  -3.6364
    -3.5238  -3.5018  -3.4245  -3.3691  -3.3199  -3.2164  -3.1602  -3.1404
    -3.0620  -3.0085  -2.9367  -2.8991  -2.8326  -2.7619  -2.6779  -2.6401
    -2.5501  -2.4966  -2.4630  -2.3675  -2.3549  -2.1860  -2.0761  -1.9802
    -1.4624  -1.3950  -1.2993  -1.2071  -1.1369  -1.0593  -1.0023  -0.9445
    -0.9027  -0.8132  -0.7960  -0.7049  -0.6651  -0.5858  -0.5099  -0.4389
    -0.3908  -0.3511  -0.3009  -0.2413  -0.1631  -0.1455  -0.1006  -0.0664
    -0.0204   0.0486   0.0588   0.1131   0.1447   0.1685   0.2340   0.2689
     0.3190   0.4073   0.4318   0.4717   0.5578   0.5847   0.6248   0.6993
     0.7372   0.7746   0.8755   0.9066   0.9643   0.9795   1.0412   1.1071
     1.1396   1.2273   1.2732   1.3693   1.4245   1.4883   1.5411   1.6394
     1.6599   1.8047   1.8510   1.9148   2.1300   2.2461   2.3618   2.6398

          k = 0.5003-0.2966-0.0003 ( 88686 PWs)   bands (ev):

   -22.5491 -22.4525 -22.2753 -22.2492 -22.1455 -22.0162 -21.9892 -21.8563
   -21.8485 -21.8073 -21.7686 -21.7506 -21.5708 -21.5278 -21.4557 -21.4284
   -21.3591 -21.3523 -21.2851 -21.2179 -21.1917 -21.1147 -21.0470 -20.9615
   -20.9270 -20.8075 -20.7617 -20.7435 -20.6615 -20.6303 -20.5018 -20.3573
   -12.3569 -12.1338 -11.8087 -11.6604 -10.9208 -10.8482 -10.7860 -10.6946
   -10.3402 -10.1861  -9.5690  -9.5513  -9.4881  -9.3559  -8.7146  -8.5783
    -7.9477  -7.9069  -7.7576  -7.5800  -7.4970  -7.2931  -6.9669  -6.7992
    -6.1791  -6.1457  -6.0771  -6.0141  -5.7269  -5.6727  -5.4222  -5.2679
    -5.1714  -5.0772  -4.9868  -4.8903  -4.8014  -4.7746  -4.7265  -4.7021
    -4.6309  -4.5590  -4.4936  -4.3899  -4.3492  -4.2953  -4.2317  -4.1460
    -4.1025  -3.9931  -3.9037  -3.8639  -3.8086  -3.7284  -3.6794  -3.5717
    -3.5621  -3.4621  -3.4379  -3.4189  -3.3586  -3.2644  -3.2316  -3.1177
    -3.0368  -2.9944  -2.9707  -2.8735  -2.8192  -2.7695  -2.7499  -2.6606
    -2.5660  -2.5273  -2.4585  -2.4012  -2.3647  -2.1802  -2.0865  -1.9895
    -1.4846  -1.3788  -1.3057  -1.2542  -1.1423  -1.0199  -1.0080  -0.9674
    -0.9127  -0.8751  -0.7763  -0.6836  -0.6508  -0.5943  -0.4749  -0.4445
    -0.3996  -0.3621  -0.3162  -0.2601  -0.1832  -0.1594  -0.1029  -0.0657
    -0.0169   0.0194   0.1184   0.1355   0.1570   0.1730   0.1864   0.2668
     0.3323   0.3535   0.4381   0.4482   0.5225   0.5680   0.5968   0.6526
     0.7023   0.8147   0.8662   0.8963   0.9769   0.9930   1.0672   1.1311
     1.1841   1.2326   1.3181   1.3738   1.4148   1.4268   1.5014   1.5691
     1.7305   1.7966   1.8494   2.0001   2.0856   2.1788   2.3927   2.6434

          k = 0.5015-0.2947-0.3838 ( 88759 PWs)   bands (ev):

   -22.5453 -22.4482 -22.2736 -22.2488 -22.1493 -22.0180 -21.9930 -21.8578
   -21.8473 -21.8066 -21.7686 -21.7495 -21.5719 -21.5297 -21.4559 -21.4287
   -21.3579 -21.3537 -21.2846 -21.2169 -21.1943 -21.1145 -21.0473 -20.9621
   -20.9272 -20.8077 -20.7619 -20.7433 -20.6625 -20.6289 -20.5016 -20.3566
   -12.3480 -12.1225 -11.8032 -11.6536 -10.9178 -10.8473 -10.7812 -10.6889
   -10.3395 -10.1897  -9.5714  -9.5568  -9.4949  -9.3560  -8.7180  -8.5887
    -7.9477  -7.9133  -7.7632  -7.5865  -7.5005  -7.2950  -6.9737  -6.8016
    -6.1890  -6.1397  -6.0850  -6.0203  -5.7251  -5.6781  -5.4248  -5.2677
    -5.1921  -5.0796  -4.9891  -4.9034  -4.8099  -4.7824  -4.7074  -4.6952
    -4.6516  -4.5570  -4.4888  -4.4102  -4.3566  -4.3063  -4.2463  -4.1456
    -4.1022  -4.0171  -3.9150  -3.8544  -3.8022  -3.7300  -3.6617  -3.6061
    -3.5442  -3.4473  -3.4286  -3.4012  -3.3394  -3.2659  -3.2369  -3.1153
    -3.0297  -2.9908  -2.9399  -2.8603  -2.8074  -2.7642  -2.7533  -2.6624
    -2.5535  -2.5231  -2.4670  -2.3926  -2.3598  -2.1908  -2.0804  -1.9910
    -1.4835  -1.3787  -1.2984  -1.2533  -1.1330  -1.0146  -1.0044  -0.9682
    -0.9050  -0.8718  -0.7733  -0.6867  -0.6430  -0.5911  -0.4706  -0.4427
    -0.3990  -0.3585  -0.3134  -0.2585  -0.1855  -0.1595  -0.1011  -0.0609
    -0.0081   0.0248   0.1189   0.1336   0.1572   0.1784   0.1921   0.2691
     0.3306   0.3569   0.4392   0.4518   0.5236   0.5684   0.5992   0.6562
     0.7057   0.8239   0.8675   0.8998   0.9799   0.9990   1.0654   1.1244
     1.1804   1.2367   1.3196   1.3753   1.4127   1.4275   1.5047   1.5733
     1.7281   1.7981   1.8509   1.9986   2.0842   2.1819   2.3914   2.6462

          k = 0.4979-0.3003 0.7668 ( 88748 PWs)   bands (ev):

   -22.5414 -22.4438 -22.2721 -22.2483 -22.1531 -22.0194 -21.9974 -21.8586
   -21.8469 -21.8057 -21.7686 -21.7484 -21.5730 -21.5317 -21.4560 -21.4289
   -21.3573 -21.3545 -21.2842 -21.2158 -21.1971 -21.1143 -21.0476 -20.9626
   -20.9274 -20.8078 -20.7621 -20.7432 -20.6635 -20.6277 -20.5015 -20.3558
   -12.3391 -12.1109 -11.7978 -11.6466 -10.9150 -10.8466 -10.7764 -10.6832
   -10.3389 -10.1932  -9.5745  -9.5627  -9.5019  -9.3553  -8.7212  -8.5989
    -7.9481  -7.9195  -7.7687  -7.5930  -7.5039  -7.2971  -6.9807  -6.8041
    -6.1978  -6.1356  -6.0916  -6.0276  -5.7235  -5.6839  -5.4270  -5.2678
    -5.2124  -5.0793  -4.9936  -4.9183  -4.8104  -4.7920  -4.7009  -4.6814
    -4.6622  -4.5597  -4.4823  -4.4323  -4.3666  -4.3160  -4.2538  -4.1465
    -4.1031  -4.0358  -3.9222  -3.8541  -3.7962  -3.7298  -3.6539  -3.6229
    -3.5366  -3.4339  -3.4151  -3.3888  -3.3274  -3.2719  -3.2342  -3.1113
    -3.0373  -2.9725  -2.9016  -2.8537  -2.8001  -2.7720  -2.7460  -2.6646
    -2.5406  -2.5172  -2.4741  -2.3789  -2.3579  -2.2015  -2.0744  -1.9927
    -1.4825  -1.3794  -1.2902  -1.2523  -1.1245  -1.0099  -0.9993  -0.9693
    -0.8972  -0.8685  -0.7706  -0.6892  -0.6355  -0.5875  -0.4659  -0.4419
    -0.3987  -0.3535  -0.3120  -0.2563  -0.1886  -0.1593  -0.0995  -0.0557
     0.0012   0.0305   0.1215   0.1306   0.1604   0.1769   0.2009   0.2717
     0.3308   0.3574   0.4400   0.4562   0.5243   0.5689   0.6017   0.6594
     0.7088   0.8337   0.8680   0.9029   0.9826   1.0065   1.0630   1.1170
     1.1765   1.2418   1.3212   1.3760   1.4109   1.4283   1.5081   1.5771
     1.7266   1.7998   1.8523   1.9974   2.0827   2.1850   2.3902   2.6490

          k = 0.4994-0.0017 0.3821 ( 88757 PWs)   bands (ev):

   -22.5502 -22.4175 -22.3484 -22.2103 -22.1352 -22.0305 -21.9690 -21.8943
   -21.8352 -21.7852 -21.7633 -21.6826 -21.6348 -21.5510 -21.5033 -21.4514
   -21.3870 -21.3224 -21.2599 -21.2146 -21.1442 -21.0989 -21.0167 -20.9900
   -20.9224 -20.8401 -20.7671 -20.7494 -20.6431 -20.6287 -20.5181 -20.3482
   -12.3516 -12.0561 -11.9740 -11.3372 -11.3078 -10.8792 -10.6785 -10.5345
   -10.2053 -10.0957  -9.9554  -9.8741  -9.1000  -9.0578  -9.0123  -8.4907
    -8.0628  -7.9336  -7.8238  -7.6948  -7.2689  -7.2324  -6.8687  -6.6954
    -6.4998  -6.3355  -6.0731  -5.9335  -5.6673  -5.5739  -5.4077  -5.3090
    -5.1933  -5.0733  -5.0053  -4.9065  -4.8010  -4.7685  -4.7225  -4.6920
    -4.6135  -4.5533  -4.4780  -4.4229  -4.3361  -4.2743  -4.1981  -4.1623
    -4.0939  -4.0555  -3.9838  -3.8837  -3.8235  -3.7357  -3.6787  -3.6208
    -3.6011  -3.4761  -3.4209  -3.3654  -3.3153  -3.2485  -3.2235  -3.1417
    -3.0426  -2.9954  -2.8942  -2.8529  -2.7906  -2.7450  -2.6928  -2.6618
    -2.5677  -2.5409  -2.4611  -2.4118  -2.3000  -2.1777  -2.1236  -2.0333
    -1.5100  -1.3519  -1.2822  -1.2167  -1.1287  -1.0447  -1.0026  -0.9531
    -0.8842  -0.8396  -0.7820  -0.7139  -0.6796  -0.5961  -0.5103  -0.4429
    -0.4151  -0.3455  -0.2939  -0.2385  -0.1816  -0.1438  -0.0985  -0.0606
    -0.0395   0.0344   0.0869   0.1003   0.1509   0.1924   0.2050   0.2510
     0.3297   0.3739   0.4317   0.4981   0.5120   0.5571   0.5919   0.6868
     0.7620   0.8115   0.8344   0.9032   0.9562   1.0217   1.0357   1.0966
     1.1510   1.2585   1.2888   1.3773   1.4219   1.4622   1.5269   1.6081
     1.6964   1.7734   1.8941   1.9592   2.1854   2.2288   2.3564   2.5550

     highest occupied level (ev):     2.8060

!    total energy              =   -1891.00136938 Ry
     estimated scf accuracy    <          1.5E-09 Ry

     The total energy is the sum of the following terms:
     one-electron contribution =   -1261.27259972 Ry
     hartree contribution      =     812.71819434 Ry
     xc contribution           =    -405.59823814 Ry
     ewald contribution        =   -1036.84872586 Ry

     convergence has been achieved in  12 iterations

     Forces acting on atoms (cartesian axes, Ry/au):

     atom    1 type  1   force =    -0.00040219    0.00054395    0.00015200
     atom    2 type  1   force =    -0.00050040    0.00056297    0.00042315
     atom    3 type  1   force =     0.00001420    0.00044395   -0.00001858
     atom    4 type  1   force =    -0.00004905    0.00057569    0.00000594
     atom    5 type  1   force =    -0.00062670    0.00035493    0.00005107
     atom    6 type  1   force =     0.00009179    0.00013761   -0.00018003
     atom    7 type  1   force =     0.00021379    0.00013263   -0.00004042
     atom    8 type  1   force =    -0.00029716    0.00043167    0.00005202
     atom    9 type  1   force =     0.00015903   -0.00020894    0.00012501
     atom   10 type  1   force =     0.00017484   -0.00022991    0.00040987
     atom   11 type  1   force =     0.00019386    0.00006875    0.00018292
     atom   12 type  1   force =     0.00061063   -0.00001846   -0.00001228
     atom   13 type  1   force =     0.00025719   -0.00020619   -0.00038487
     atom   14 type  1   force =    -0.00057479    0.00007516    0.00016052
     atom   15 type  1   force =     0.00017679   -0.00013391   -0.00073236
     atom   16 type  1   force =     0.00057647   -0.00014746    0.00017522
     atom   17 type  1   force =     0.00007167   -0.00006453   -0.00033097
     atom   18 type  1   force =    -0.00010261   -0.00052113   -0.00006618
     atom   19 type  1   force =    -0.00073228   -0.00033218   -0.00017567
     atom   20 type  1   force =    -0.00047055   -0.00027501   -0.00000704
     atom   21 type  1   force =    -0.00021494   -0.00012734    0.00003862
     atom   22 type  1   force =    -0.00012957   -0.00063502   -0.00005496
     atom   23 type  1   force =    -0.00018159   -0.00041465   -0.00037798
     atom   24 type  1   force =    -0.00006412   -0.00010853   -0.00035548
     atom   25 type  1   force =    -0.00025748    0.00017707    0.00030918
     atom   26 type  1   force =    -0.00000770    0.00045241    0.00010335
     atom   27 type  1   force =    -0.00001793    0.00061340   -0.00016188
     atom   28 type  1   force =    -0.00026726    0.00003825   -0.00006105
     atom   29 type  1   force =     0.00063288   -0.00022163   -0.00009319
     atom   30 type  1   force =     0.00012499    0.00005678    0.00003037
     atom   31 type  1   force =    -0.00024347    0.00028434    0.00054722
     atom   32 type  1   force =    -0.00034547   -0.00010424    0.00018194
     atom   33 type  2   force =     0.00018153    0.00023127   -0.00007754
     atom   34 type  2   force =    -0.00058508    0.00015668    0.00058760
     atom   35 type  2   force =    -0.00043788    0.00029588    0.00019308
     atom   36 type  2   force =    -0.00009110    0.00000272   -0.00017611
     atom   37 type  2   force =     0.00023753   -0.00034103   -0.00019609
     atom   38 type  2   force =    -0.00007744   -0.00058625   -0.00053873
     atom   39 type  2   force =    -0.00008984   -0.00042297   -0.00027007
     atom   40 type  2   force =     0.00082978   -0.00030996    0.00066262
     atom   41 type  2   force =    -0.00015140    0.00037731    0.00004758
     atom   42 type  2   force =     0.00031780   -0.00044484   -0.00003638
     atom   43 type  2   force =    -0.00058616    0.00044484   -0.00009449
     atom   44 type  2   force =     0.00014077   -0.00031210   -0.00028861
     atom   45 type  2   force =     0.00066255    0.00009297   -0.00027768
     atom   46 type  2   force =    -0.00016473    0.00011366    0.00023971
     atom   47 type  2   force =    -0.00029425    0.00007073   -0.00078802
     atom   48 type  2   force =     0.00029832   -0.00013214    0.00009964
     atom   49 type  2   force =    -0.00011769   -0.00027907    0.00012853
     atom   50 type  2   force =     0.00016151    0.00020509    0.00011550
     atom   51 type  2   force =    -0.00020806    0.00066276    0.00029016
     atom   52 type  2   force =     0.00024173   -0.00075265   -0.00007551
     atom   53 type  2   force =     0.00031723   -0.00018798    0.00042161
     atom   54 type  2   force =     0.00024090   -0.00037838    0.00027620
     atom   55 type  2   force =     0.00026063    0.00005276   -0.00038843
     atom   56 type  2   force =     0.00008427    0.00036450   -0.00028440
     atom   57 type  2   force =    -0.00008227   -0.00008019    0.00056780
     atom   58 type  2   force =     0.00012492    0.00058318    0.00027181
     atom   59 type  2   force =    -0.00006619   -0.00014424   -0.00060419
     atom   60 type  2   force =    -0.00003763    0.00040868   -0.00000666
     atom   61 type  2   force =     0.00063616   -0.00017479   -0.00020951
     atom   62 type  2   force =     0.00052398   -0.00041851    0.00012779
     atom   63 type  2   force =    -0.00027830    0.00027354    0.00064576
     atom   64 type  2   force =     0.00019557   -0.00057193   -0.00025845

     Total force =     0.004608     Total SCF correction =     0.000147


     Computing stress (Cartesian axis) and pressure

          total   stress  (Ry/bohr**3)                   (kbar)     P=        0.00
  -0.00000012  -0.00000120   0.00000003           -0.02       -0.18        0.00
  -0.00000120  -0.00000112   0.00000112           -0.18       -0.16        0.16
   0.00000003   0.00000112   0.00000126            0.00        0.16        0.19


     Writing all to output data dir ./pwscf.save/
 
     init_run     :     34.36s CPU     35.49s WALL (       2 calls)
     electrons    :  36014.39s CPU  36620.36s WALL (      51 calls)
     update_pot   :      9.68s CPU     10.86s WALL (      49 calls)
     forces       :    466.10s CPU    487.38s WALL (      51 calls)
     stress       :   6543.35s CPU   6606.68s WALL (      51 calls)

     Called by init_run:
     wfcinit      :     33.68s CPU     34.63s WALL (       2 calls)
     potinit      :      0.15s CPU      0.17s WALL (       2 calls)
     hinit0       :      0.09s CPU      0.21s WALL (       2 calls)

     Called by electrons:
     c_bands      :  33768.57s CPU  34342.35s WALL (     446 calls)
     sum_band     :   2231.42s CPU   2261.99s WALL (     446 calls)
     v_of_rho     :     13.51s CPU     14.71s WALL (     490 calls)
     mix_rho      :      2.92s CPU      3.21s WALL (     446 calls)

     Called by c_bands:
     init_us_2    :    370.73s CPU    376.46s WALL (   35856 calls)
     init_us_2:cp :    370.34s CPU    376.25s WALL (   35856 calls)
     cegterg      :  33217.52s CPU  33775.62s WALL (   16154 calls)

     Called by *egterg:
     cdiaghg      :   1361.03s CPU   1417.23s WALL (   84854 calls)
     h_psi        :  21514.87s CPU  21865.73s WALL (   87040 calls)
     g_psi        :     68.09s CPU     69.08s WALL (   70814 calls)

     Called by h_psi:
     h_psi:calbec :   3120.39s CPU   3270.29s WALL (   87040 calls)
     vloc_psi     :  14885.29s CPU  15039.27s WALL (   87040 calls)
     add_vuspsi   :   3277.41s CPU   3310.50s WALL (   87040 calls)

     General routines
     calbec       :   3575.14s CPU   3748.93s WALL (   96220 calls)
     fft          :     10.17s CPU     11.11s WALL (    5313 calls)
     ffts         :      0.58s CPU      0.59s WALL (     446 calls)
     fftw         :  15676.39s CPU  15837.78s WALL (23008158 calls)
 
     Parallel routines
 
     PWSCF        :     11h57m CPU     12h 9m WALL

 
   This run was terminated on:  12:45:48  12Dec2022            

=------------------------------------------------------------------------------=
   JOB DONE.
=------------------------------------------------------------------------------=
