
     Program PWSCF v.7.0 starts on 20Jul2023 at  4:51:11 

     This program is part of the open-source Quantum ESPRESSO suite
     for quantum simulation of materials; please cite
         "P. Giannozzi et al., J. Phys.:Condens. Matter 21 395502 (2009);
         "P. Giannozzi et al., J. Phys.:Condens. Matter 29 465901 (2017);
         "P. Giannozzi et al., J. Chem. Phys. 152 154105 (2020);
          URL http://www.quantum-espresso.org", 
     in publications or presentations arising from this work. More details at
     http://www.quantum-espresso.org/quote

     Parallel version (MPI & OpenMP), running on     256 processor cores
     Number of MPI processes:               256
     Threads/MPI process:                     1

     MPI processes distributed on     2 nodes
     R & G space division:  proc/nbgrp/npool/nimage =     256
     207766 MiB available memory on the printing compute node when the environment starts
 
     Waiting for input...
     Reading input from standard input
Warning: card &CELL ignored
Warning: card / ignored

     Current dimensions of program PWSCF are:
     Max number of different atomic species (ntypx) = 10
     Max number of k-points (npk) =  40000
     Max angular momentum in pseudopotentials (lmaxx) =  4

     Subspace diagonalization in iterative solution of the eigenvalue problem:
     one sub-group per band group will be used
     ELPA distributed-memory algorithm (size of sub-group: 16* 16 procs)

 
     Parallelization info
     --------------------
     sticks:   dense  smooth     PW     G-vecs:    dense   smooth      PW
     Min         110     110     28                20192    20192    2675
     Max         111     111     29                20211    20211    2694
     Sum       28341   28341   7385              5171715  5171715  687833
 
     Using Slab Decomposition
 


     bravais-lattice index     =            0
     lattice parameter (alat)  =      29.9287  a.u.
     unit-cell volume          =   23110.2841 (a.u.)^3
     number of atoms/cell      =          360
     number of atomic types    =            2
     number of electrons       =      1980.00
     number of Kohn-Sham states=          990
     kinetic-energy cutoff     =     140.0000  Ry
     charge density cutoff     =     560.0000  Ry
     scf convergence threshold =      1.0E-06
     mixing beta               =       0.7000
     number of iterations used =            8  plain     mixing
     Exchange-correlation= PBE
                           (   1   4   3   4   0   0   0)

     celldm(1)=  29.928700  celldm(2)=   0.000000  celldm(3)=   0.000000
     celldm(4)=   0.000000  celldm(5)=   0.000000  celldm(6)=   0.000000

     crystal axes: (cart. coord. in units of alat)
               a(1) = (   0.999913   0.013187  -0.000297 )  
               a(2) = (  -0.407114   0.704987   0.000093 )  
               a(3) = (  -0.000362  -0.000052   1.213678 )  

     reciprocal axes: (cart. coord. in units 2 pi/alat)
               b(1) = (  0.992528  0.573162  0.000321 )  
               b(2) = ( -0.018566  1.407745  0.000055 )  
               b(3) = (  0.000244  0.000032  0.823942 )  


     PseudoPot. # 1 for C  read from file:
     /jet/home/hzhao3/pseudopotential/SG15_ONCV_v1.0_upf/C_ONCV_PBE-1.0.upf
     MD5 check sum: dd1f23aaa54f950ea95e90232430301b
     Pseudo is Norm-conserving, Zval =  4.0
     Generated using ONCVPSP code by D. R. Hamann
     Using radial grid of  602 points,  4 beta functions with: 
                l(1) =   0
                l(2) =   0
                l(3) =   1
                l(4) =   1

     PseudoPot. # 2 for F  read from file:
     /jet/home/hzhao3/pseudopotential/SG15_ONCV_v1.0_upf/F_ONCV_PBE-1.0.upf
     MD5 check sum: 3dfc70f4a6577bbe4d25d3797c89696e
     Pseudo is Norm-conserving, Zval =  7.0
     Generated using ONCVPSP code by D. R. Hamann
     Using radial grid of  602 points,  4 beta functions with: 
                l(1) =   0
                l(2) =   0
                l(3) =   1
                l(4) =   1

     atomic species   valence    mass     pseudopotential
        C              4.00    12.01100     C ( 1.00)
        F              7.00    18.99840     F ( 1.00)

     No symmetry found



   Cartesian axes

     site n.     atom                  positions (alat units)
         1           C   tau(   1) = (   0.0080796   0.0977531   0.1890069  )
         2           C   tau(   2) = (   0.0787709   0.0451402   0.2326865  )
         3           C   tau(   3) = (   0.1644867   0.1028273   0.2221300  )
         4           C   tau(   4) = (   0.2396538   0.0533617   0.1865153  )
         5           F   tau(   5) = (   0.0141174   0.1102468   0.0981820  )
         6           F   tau(   6) = (   0.0570813   0.0407042   0.3063040  )
         7           F   tau(   7) = (   0.1809138   0.1123773   0.3062563  )
         8           F   tau(   8) = (   0.2237067   0.0428161   0.0981281  )
         9           C   tau(   9) = (  -0.0023122   0.1006226   0.5868865  )
        10           C   tau(  10) = (   0.0733092   0.0502279   0.6267169  )
        11           C   tau(  11) = (   0.1643659   0.1028098   0.6266895  )
        12           C   tau(  12) = (   0.2399627   0.0524130   0.5868165  )
        13           F   tau(  13) = (   0.0139966   0.1102294   0.5027414  )
        14           F   tau(  14) = (   0.0569605   0.0406868   0.7108635  )
        15           F   tau(  15) = (   0.1807930   0.1123599   0.7108158  )
        16           F   tau(  16) = (   0.2235859   0.0427986   0.5026876  )
        17           C   tau(  17) = (  -0.0024330   0.1006052   0.9914459  )
        18           C   tau(  18) = (   0.0758816   0.0479710   1.0262573  )
        19           C   tau(  19) = (   0.1642451   0.1027924   1.0312489  )
        20           C   tau(  20) = (   0.2398419   0.0523956   0.9913760  )
        21           F   tau(  21) = (   0.0138757   0.1102119   0.9073009  )
        22           F   tau(  22) = (   0.0568397   0.0406693   1.1154229  )
        23           F   tau(  23) = (   0.1885208   0.1178174   1.1255453  )
        24           F   tau(  24) = (   0.2234651   0.0427812   0.9072471  )
        25           C   tau(  25) = (  -0.0818490   0.2400117   0.1752899  )
        26           C   tau(  26) = (  -0.0079927   0.1912426   0.2221761  )
        27           C   tau(  27) = (   0.0830640   0.2438246   0.2221487  )
        28           C   tau(  28) = (   0.1586608   0.1934278   0.1822757  )
        29           F   tau(  29) = (  -0.0673053   0.2512441   0.0982006  )
        30           F   tau(  30) = (  -0.0243414   0.1817015   0.3063227  )
        31           F   tau(  31) = (   0.0994911   0.2533746   0.3062750  )
        32           F   tau(  32) = (   0.1322886   0.1890920   0.1008634  )
        33           C   tau(  33) = (  -0.0837349   0.2416200   0.5869051  )
        34           C   tau(  34) = (  -0.0081135   0.1912252   0.6267355  )
        35           C   tau(  35) = (   0.0829432   0.2438071   0.6267081  )
        36           C   tau(  36) = (   0.1585400   0.1934104   0.5868352  )
        37           F   tau(  37) = (  -0.0674262   0.2512267   0.5027601  )
        38           F   tau(  38) = (  -0.0244622   0.1816841   0.7108821  )
        39           F   tau(  39) = (   0.0993703   0.2533572   0.7108344  )
        40           F   tau(  40) = (   0.1421632   0.1837959   0.5027062  )
        41           C   tau(  41) = (  -0.0838557   0.2416025   0.9914646  )
        42           C   tau(  42) = (  -0.0082343   0.1912077   1.0312950  )
        43           C   tau(  43) = (   0.0828224   0.2437897   1.0312676  )
        44           C   tau(  44) = (   0.1584192   0.1933929   0.9913946  )
        45           F   tau(  45) = (  -0.0675470   0.2512093   0.9073195  )
        46           F   tau(  46) = (  -0.0245830   0.1816666   1.1154416  )
        47           F   tau(  47) = (   0.0875677   0.2472199   1.1169824  )
        48           F   tau(  48) = (   0.1420424   0.1837785   0.9072657  )
        49           C   tau(  49) = (  -0.1650368   0.3826347   0.1823643  )
        50           C   tau(  50) = (  -0.0795990   0.3380631   0.2238102  )
        51           C   tau(  51) = (   0.0016413   0.3848219   0.2221673  )
        52           C   tau(  52) = (   0.0772381   0.3344251   0.1822943  )
        53           F   tau(  53) = (  -0.1487280   0.3922414   0.0982193  )
        54           F   tau(  54) = (  -0.1057641   0.3226988   0.3063413  )
        55           F   tau(  55) = (   0.0180684   0.3943719   0.3062936  )
        56           F   tau(  56) = (   0.0560281   0.3250929   0.0949375  )
        57           C   tau(  57) = (  -0.1651576   0.3826173   0.5869237  )
        58           C   tau(  58) = (  -0.0895362   0.3322225   0.6267542  )
        59           C   tau(  59) = (   0.0015205   0.3848045   0.6267268  )
        60           C   tau(  60) = (   0.0771173   0.3344077   0.5868538  )
        61           F   tau(  61) = (  -0.1488489   0.3922240   0.5027787  )
        62           F   tau(  62) = (  -0.1058849   0.3226814   0.7109008  )
        63           F   tau(  63) = (   0.0179476   0.3943545   0.7108531  )
        64           F   tau(  64) = (   0.0607405   0.3247933   0.5027249  )
        65           C   tau(  65) = (  -0.1718409   0.3860107   0.9885717  )
        66           C   tau(  66) = (  -0.0944612   0.3367677   1.0338190  )
        67           C   tau(  67) = (   0.0013997   0.3847870   1.0312862  )
        68           C   tau(  68) = (   0.0769965   0.3343902   0.9914133  )
        69           F   tau(  69) = (  -0.1489697   0.3922066   0.9073382  )
        70           F   tau(  70) = (  -0.1060057   0.3226639   1.1154602  )
        71           F   tau(  71) = (   0.0226309   0.3994959   1.1268536  )
        72           F   tau(  72) = (   0.0606197   0.3247758   0.9072843  )
        73           C   tau(  73) = (  -0.2464595   0.5236320   0.1823829  )
        74           C   tau(  74) = (  -0.1708381   0.4732372   0.2222134  )
        75           C   tau(  75) = (  -0.0845113   0.5305116   0.2210291  )
        76           C   tau(  76) = (  -0.0022874   0.4762153   0.1831602  )
        77           F   tau(  77) = (  -0.2301507   0.5332388   0.0982379  )
        78           F   tau(  78) = (  -0.1939899   0.4741539   0.3068817  )
        79           F   tau(  79) = (  -0.0633543   0.5353693   0.3063123  )
        80           F   tau(  80) = (  -0.0205614   0.4658080   0.0981841  )
        81           C   tau(  81) = (  -0.2520711   0.5250743   0.5864736  )
        82           C   tau(  82) = (  -0.1709589   0.4732198   0.6267728  )
        83           C   tau(  83) = (  -0.0799022   0.5258018   0.6267454  )
        84           C   tau(  84) = (  -0.0043054   0.4754050   0.5868724  )
        85           F   tau(  85) = (  -0.2359007   0.5341868   0.5041534  )
        86           F   tau(  86) = (  -0.1873076   0.4636787   0.7109194  )
        87           F   tau(  87) = (  -0.0634751   0.5353518   0.7108717  )
        88           F   tau(  88) = (  -0.0206822   0.4657906   0.5027435  )
        89           C   tau(  89) = (  -0.2467011   0.5235971   0.9915018  )
        90           C   tau(  90) = (  -0.1710797   0.4732024   1.0313323  )
        91           C   tau(  91) = (  -0.0851663   0.5267506   1.0253621  )
        92           C   tau(  92) = (  -0.0044262   0.4753875   0.9914319  )
        93           F   tau(  93) = (  -0.2303924   0.5332039   0.9073568  )
        94           F   tau(  94) = (  -0.1874284   0.4636613   1.1154789  )
        95           F   tau(  95) = (  -0.0635959   0.5353344   1.1154312  )
        96           F   tau(  96) = (  -0.0208030   0.4657731   0.9073030  )
        97           C   tau(  97) = (  -0.3278822   0.6646293   0.1824016  )
        98           C   tau(  98) = (  -0.2522608   0.6142346   0.2222320  )
        99           C   tau(  99) = (  -0.1612041   0.6668165   0.2222046  )
       100           C   tau( 100) = (  -0.0856073   0.6164197   0.1823316  )
       101           F   tau( 101) = (  -0.3115734   0.6742361   0.0982565  )
       102           F   tau( 102) = (  -0.2686095   0.6046935   0.3063786  )
       103           F   tau( 103) = (  -0.1447770   0.6763666   0.3063309  )
       104           F   tau( 104) = (  -0.1019841   0.6068053   0.0982027  )
       105           C   tau( 105) = (  -0.3280030   0.6646119   0.5869610  )
       106           C   tau( 106) = (  -0.2523816   0.6142171   0.6267915  )
       107           C   tau( 107) = (  -0.1468273   0.6612273   0.6255125  )
       108           C   tau( 108) = (  -0.0857281   0.6164023   0.5868911  )
       109           F   tau( 109) = (  -0.3116943   0.6742186   0.5028160  )
       110           F   tau( 110) = (  -0.2687303   0.6046760   0.7109381  )
       111           F   tau( 111) = (  -0.1496948   0.6731938   0.7089327  )
       112           F   tau( 112) = (  -0.1021049   0.6067879   0.5027622  )
       113           C   tau( 113) = (  -0.3281238   0.6645945   0.9915205  )
       114           C   tau( 114) = (  -0.2525024   0.6141997   1.0313509  )
       115           C   tau( 115) = (  -0.1614457   0.6667816   1.0313235  )
       116           C   tau( 116) = (  -0.0873338   0.6107163   1.0085514  )
       117           F   tau( 117) = (  -0.3118151   0.6742012   0.9073755  )
       118           F   tau( 118) = (  -0.2688511   0.6046586   1.1154975  )
       119           F   tau( 119) = (  -0.1450186   0.6763317   1.1154498  )
       120           F   tau( 120) = (  -0.1165610   0.6135485   0.9030141  )
       121           C   tau( 121) = (   0.3332707   0.1160365   0.1800861  )
       122           C   tau( 122) = (   0.4038978   0.0411141   0.2116982  )
       123           C   tau( 123) = (   0.4997460   0.0918119   0.2186152  )
       124           C   tau( 124) = (   0.5733878   0.0568263   0.1821582  )
       125           F   tau( 125) = (   0.3474217   0.1146426   0.0980831  )
       126           F   tau( 126) = (   0.3903857   0.0451000   0.3062052  )
       127           F   tau( 127) = (   0.5142181   0.1167731   0.3061575  )
       128           F   tau( 128) = (   0.5570110   0.0472119   0.0980293  )
       129           C   tau( 129) = (   0.3309921   0.1050184   0.5867876  )
       130           C   tau( 130) = (   0.4066135   0.0546237   0.6266180  )
       131           C   tau( 131) = (   0.4976702   0.1072056   0.6265906  )
       132           C   tau( 132) = (   0.5732670   0.0568088   0.5867176  )
       133           F   tau( 133) = (   0.3473009   0.1146252   0.5026426  )
       134           F   tau( 134) = (   0.3902649   0.0450826   0.7107646  )
       135           F   tau( 135) = (   0.5140973   0.1167557   0.7107169  )
       136           F   tau( 136) = (   0.5568902   0.0471944   0.5025887  )
       137           C   tau( 137) = (   0.3308713   0.1050010   0.9913471  )
       138           C   tau( 138) = (   0.3863156   0.0551877   1.0336530  )
       139           C   tau( 139) = (   0.4931799   0.1076406   1.0352820  )
       140           C   tau( 140) = (   0.5835683   0.0585797   0.9978672  )
       141           F   tau( 141) = (   0.3471801   0.1146077   0.9072020  )
       142           F   tau( 142) = (   0.3901441   0.0450651   1.1153241  )
       143           F   tau( 143) = (   0.5139765   0.1167382   1.1152764  )
       144           F   tau( 144) = (   0.5580559   0.0401605   0.9150224  )
       145           C   tau( 145) = (   0.2496902   0.2460332   0.1822468  )
       146           C   tau( 146) = (   0.3253116   0.1956384   0.2220772  )
       147           C   tau( 147) = (   0.4163683   0.2482204   0.2220498  )
       148           C   tau( 148) = (   0.4773842   0.2111986   0.1833985  )
       149           F   tau( 149) = (   0.2649866   0.2530562   0.1022305  )
       150           F   tau( 150) = (   0.3089630   0.1860973   0.3062238  )
       151           F   tau( 151) = (   0.4327954   0.2577704   0.3061761  )
       152           F   tau( 152) = (   0.4755883   0.1882092   0.0980479  )
       153           C   tau( 153) = (   0.2495694   0.2460158   0.5868062  )
       154           C   tau( 154) = (   0.3251908   0.1956210   0.6266367  )
       155           C   tau( 155) = (   0.4162475   0.2482030   0.6266092  )
       156           C   tau( 156) = (   0.4918443   0.1978062   0.5867363  )
       157           F   tau( 157) = (   0.2658782   0.2556225   0.5026612  )
       158           F   tau( 158) = (   0.3088422   0.1860799   0.7107833  )
       159           F   tau( 159) = (   0.4326746   0.2577530   0.7107356  )
       160           F   tau( 160) = (   0.4754675   0.1881918   0.5026074  )
       161           C   tau( 161) = (   0.2494486   0.2459983   0.9913657  )
       162           C   tau( 162) = (   0.3250700   0.1956035   1.0311961  )
       163           C   tau( 163) = (   0.4161267   0.2481855   1.0311687  )
       164           C   tau( 164) = (   0.4917235   0.1977887   0.9912957  )
       165           F   tau( 165) = (   0.2657574   0.2556051   0.9072207  )
       166           F   tau( 166) = (   0.3074440   0.1667645   1.1152414  )
       167           F   tau( 167) = (   0.4333696   0.2566211   1.1202013  )
       168           F   tau( 168) = (   0.4753467   0.1881743   0.9071668  )
       169           C   tau( 169) = (   0.1682675   0.3870305   0.1822654  )
       170           C   tau( 170) = (   0.2438889   0.3366357   0.2220958  )
       171           C   tau( 171) = (   0.3349456   0.3892177   0.2220684  )
       172           C   tau( 172) = (   0.4105424   0.3388209   0.1821955  )
       173           F   tau( 173) = (   0.1765237   0.3954049   0.0896996  )
       174           F   tau( 174) = (   0.2275403   0.3270946   0.3062424  )
       175           F   tau( 175) = (   0.3513727   0.3987677   0.3061948  )
       176           F   tau( 176) = (   0.3973168   0.3165407   0.1098648  )
       177           C   tau( 177) = (   0.1681467   0.3870131   0.5868249  )
       178           C   tau( 178) = (   0.2437681   0.3366183   0.6266553  )
       179           C   tau( 179) = (   0.3348248   0.3892003   0.6266279  )
       180           C   tau( 180) = (   0.4104216   0.3388035   0.5867549  )
       181           F   tau( 181) = (   0.1844555   0.3966198   0.5026799  )
       182           F   tau( 182) = (   0.2274195   0.3270772   0.7108019  )
       183           F   tau( 183) = (   0.3512519   0.3987503   0.7107542  )
       184           F   tau( 184) = (   0.3940448   0.3291891   0.5026260  )
       185           C   tau( 185) = (   0.1680259   0.3869956   0.9913843  )
       186           C   tau( 186) = (   0.2436473   0.3366009   1.0312148  )
       187           C   tau( 187) = (   0.3347040   0.3891828   1.0311873  )
       188           C   tau( 188) = (   0.4103008   0.3387860   0.9913144  )
       189           F   tau( 189) = (   0.1843347   0.3966024   0.9072393  )
       190           F   tau( 190) = (   0.2272987   0.3270598   1.1153614  )
       191           F   tau( 191) = (   0.3511311   0.3987329   1.1153137  )
       192           F   tau( 192) = (   0.3939240   0.3291716   0.9071855  )
       193           C   tau( 193) = (   0.0908195   0.5357069   0.1823457  )
       194           C   tau( 194) = (   0.1624662   0.4776330   0.2221145  )
       195           C   tau( 195) = (   0.2535229   0.5302150   0.2220871  )
       196           C   tau( 196) = (   0.3291197   0.4798182   0.1822141  )
       197           F   tau( 197) = (   0.1031536   0.5376346   0.0981390  )
       198           F   tau( 198) = (   0.1461176   0.4680919   0.3062611  )
       199           F   tau( 199) = (   0.2699500   0.5397651   0.3062134  )
       200           F   tau( 200) = (   0.3210364   0.4703964   0.1076661  )
       201           C   tau( 201) = (   0.0867240   0.5280104   0.5868435  )
       202           C   tau( 202) = (   0.1623454   0.4776156   0.6266739  )
       203           C   tau( 203) = (   0.2534021   0.5301976   0.6266465  )
       204           C   tau( 204) = (   0.3289989   0.4798008   0.5867736  )
       205           F   tau( 205) = (   0.1030328   0.5376171   0.5026985  )
       206           F   tau( 206) = (   0.1459968   0.4680745   0.7108205  )
       207           F   tau( 207) = (   0.2698292   0.5397476   0.7107729  )
       208           F   tau( 208) = (   0.3126221   0.4701864   0.5026446  )
       209           C   tau( 209) = (   0.0866032   0.5279930   0.9914030  )
       210           C   tau( 210) = (   0.1622246   0.4775982   1.0312334  )
       211           C   tau( 211) = (   0.2532813   0.5301801   1.0312060  )
       212           C   tau( 212) = (   0.3288781   0.4797833   0.9913330  )
       213           F   tau( 213) = (   0.1029120   0.5375997   0.9072580  )
       214           F   tau( 214) = (   0.1450028   0.4708889   1.1185454  )
       215           F   tau( 215) = (   0.2680682   0.5342979   1.1080223  )
       216           F   tau( 216) = (   0.3125013   0.4701689   0.9072041  )
       217           C   tau( 217) = (   0.0054221   0.6690252   0.1823027  )
       218           C   tau( 218) = (   0.0840504   0.6104188   0.2249063  )
       219           C   tau( 219) = (   0.1864004   0.6656838   0.2211634  )
       220           C   tau( 220) = (   0.2429096   0.6187040   0.1676171  )
       221           F   tau( 221) = (   0.0217309   0.6786319   0.0981577  )
       222           F   tau( 222) = (   0.0646949   0.6090893   0.3062797  )
       223           F   tau( 223) = (   0.1885273   0.6807624   0.3062320  )
       224           F   tau( 224) = (   0.2313202   0.6112011   0.0981038  )
       225           C   tau( 225) = (   0.0053013   0.6690077   0.5868622  )
       226           C   tau( 226) = (   0.0809227   0.6186129   0.6266926  )
       227           C   tau( 227) = (   0.1719794   0.6711949   0.6266652  )
       228           C   tau( 228) = (   0.2475762   0.6207981   0.5867922  )
       229           F   tau( 229) = (   0.0216101   0.6786144   0.5027171  )
       230           F   tau( 230) = (   0.0645741   0.6090718   0.7108392  )
       231           F   tau( 231) = (   0.1884065   0.6807449   0.7107915  )
       232           F   tau( 232) = (   0.2311994   0.6111837   0.5026633  )
       233           C   tau( 233) = (   0.0063555   0.6826813   0.9977601  )
       234           C   tau( 234) = (   0.0718223   0.6142351   1.0323893  )
       235           C   tau( 235) = (   0.1640157   0.6639363   1.0308652  )
       236           C   tau( 236) = (   0.2474554   0.6207807   0.9913517  )
       237           F   tau( 237) = (   0.0214893   0.6785970   0.9072766  )
       238           F   tau( 238) = (   0.0644533   0.6090544   1.1153986  )
       239           F   tau( 239) = (   0.1882857   0.6807275   1.1153510  )
       240           F   tau( 240) = (   0.2310786   0.6111663   0.9072227  )
       241           C   tau( 241) = (   0.6644173   0.1094317   0.1821293  )
       242           C   tau( 242) = (   0.7400386   0.0590369   0.2219597  )
       243           C   tau( 243) = (   0.8310954   0.1116189   0.2219323  )
       244           C   tau( 244) = (   0.9066922   0.0612221   0.1820593  )
       245           F   tau( 245) = (   0.6807260   0.1190384   0.0979842  )
       246           F   tau( 246) = (   0.7236900   0.0494958   0.3061063  )
       247           F   tau( 247) = (   0.8475224   0.1211689   0.3060586  )
       248           F   tau( 248) = (   0.8903153   0.0516077   0.0979304  )
       249           C   tau( 249) = (   0.6642965   0.1094143   0.5866887  )
       250           C   tau( 250) = (   0.7399178   0.0590195   0.6265191  )
       251           C   tau( 251) = (   0.8309746   0.1116014   0.6264917  )
       252           C   tau( 252) = (   0.9065713   0.0612046   0.5866188  )
       253           F   tau( 253) = (   0.6806052   0.1190210   0.5025437  )
       254           F   tau( 254) = (   0.7321747   0.0413488   0.7262915  )
       255           F   tau( 255) = (   0.8474016   0.1211515   0.7106181  )
       256           F   tau( 256) = (   0.8901945   0.0515902   0.5024899  )
       257           C   tau( 257) = (   0.6641757   0.1093968   0.9912482  )
       258           C   tau( 258) = (   0.7397970   0.0590020   1.0310786  )
       259           C   tau( 259) = (   0.8308538   0.1115840   1.0310512  )
       260           C   tau( 260) = (   0.9064505   0.0611872   0.9911782  )
       261           F   tau( 261) = (   0.6829522   0.1151598   0.9104883  )
       262           F   tau( 262) = (   0.7234484   0.0494609   1.1152252  )
       263           F   tau( 263) = (   0.8472808   0.1211340   1.1151775  )
       264           F   tau( 264) = (   0.8900737   0.0515728   0.9070493  )
       265           C   tau( 265) = (   0.5804208   0.2560612   0.1821500  )
       266           C   tau( 266) = (   0.6586159   0.2000342   0.2219783  )
       267           C   tau( 267) = (   0.7496727   0.2526162   0.2219509  )
       268           C   tau( 268) = (   0.8252694   0.2022194   0.1820780  )
       269           F   tau( 269) = (   0.5993033   0.2600357   0.0980029  )
       270           F   tau( 270) = (   0.6393423   0.1945726   0.3032100  )
       271           F   tau( 271) = (   0.7660997   0.2621662   0.3060772  )
       272           F   tau( 272) = (   0.8088926   0.1926050   0.0979490  )
       273           C   tau( 273) = (   0.5828738   0.2504116   0.5867074  )
       274           C   tau( 274) = (   0.6584951   0.2000168   0.6265378  )
       275           C   tau( 275) = (   0.7582111   0.2518671   0.6161214  )
       276           C   tau( 276) = (   0.8251486   0.2022020   0.5866374  )
       277           F   tau( 277) = (   0.5991825   0.2600183   0.5025623  )
       278           F   tau( 278) = (   0.6421465   0.1904757   0.7106844  )
       279           F   tau( 279) = (   0.7613008   0.2475455   0.7109089  )
       280           F   tau( 280) = (   0.8087718   0.1925876   0.5025085  )
       281           C   tau( 281) = (   0.5717470   0.2437170   0.9817390  )
       282           C   tau( 282) = (   0.6583743   0.1999993   1.0310972  )
       283           C   tau( 283) = (   0.7494311   0.2525813   1.0310698  )
       284           C   tau( 284) = (   0.8250278   0.2021845   0.9911969  )
       285           F   tau( 285) = (   0.5990617   0.2600009   0.9071218  )
       286           F   tau( 286) = (   0.6420257   0.1904582   1.1152438  )
       287           F   tau( 287) = (   0.7658581   0.2621313   1.1151962  )
       288           F   tau( 288) = (   0.8086510   0.1925701   0.9070680  )
       289           C   tau( 289) = (   0.4891253   0.3855556   0.1854831  )
       290           C   tau( 290) = (   0.5713951   0.3429990   0.2219808  )
       291           C   tau( 291) = (   0.6682500   0.3936135   0.2219696  )
       292           C   tau( 292) = (   0.7438467   0.3432167   0.1820966  )
       293           F   tau( 293) = (   0.5178806   0.4010331   0.0980215  )
       294           F   tau( 294) = (   0.5608446   0.3314904   0.3061436  )
       295           F   tau( 295) = (   0.6869131   0.4080746   0.3066618  )
       296           F   tau( 296) = (   0.7274699   0.3336023   0.0979677  )
       297           C   tau( 297) = (   0.5014511   0.3914089   0.5867260  )
       298           C   tau( 298) = (   0.5770724   0.3410141   0.6265564  )
       299           C   tau( 299) = (   0.6681292   0.3935961   0.6265290  )
       300           C   tau( 300) = (   0.7437259   0.3431993   0.5866561  )
       301           F   tau( 301) = (   0.5177598   0.4010156   0.5025810  )
       302           F   tau( 302) = (   0.5607238   0.3314730   0.7107030  )
       303           F   tau( 303) = (   0.6845562   0.4031461   0.7106553  )
       304           F   tau( 304) = (   0.7273491   0.3335849   0.5025271  )
       305           C   tau( 305) = (   0.5013303   0.3913914   0.9912855  )
       306           C   tau( 306) = (   0.5781518   0.3556493   1.0275821  )
       307           C   tau( 307) = (   0.6680084   0.3935786   1.0310885  )
       308           C   tau( 308) = (   0.7436051   0.3431818   0.9912155  )
       309           F   tau( 309) = (   0.5176390   0.4009982   0.9071404  )
       310           F   tau( 310) = (   0.5606030   0.3314556   1.1152625  )
       311           F   tau( 311) = (   0.6844354   0.4031287   1.1152148  )
       312           F   tau( 312) = (   0.7152432   0.3206680   0.9090978  )
       313           C   tau( 313) = (   0.4219586   0.5377806   0.1905786  )
       314           C   tau( 314) = (   0.4957705   0.4820289   0.2220156  )
       315           C   tau( 315) = (   0.5854345   0.5268915   0.2402816  )
       316           C   tau( 316) = (   0.6624240   0.4842140   0.1821152  )
       317           F   tau( 317) = (   0.4364579   0.5420304   0.0980402  )
       318           F   tau( 318) = (   0.4794219   0.4724878   0.3061622  )
       319           F   tau( 319) = (   0.6050614   0.5440275   0.3025497  )
       320           F   tau( 320) = (   0.6460472   0.4745996   0.0979863  )
       321           C   tau( 321) = (   0.4200284   0.5324062   0.5867446  )
       322           C   tau( 322) = (   0.4956497   0.4820114   0.6265751  )
       323           C   tau( 323) = (   0.5867065   0.5345934   0.6265477  )
       324           C   tau( 324) = (   0.6623032   0.4841966   0.5866747  )
       325           F   tau( 325) = (   0.4363371   0.5420129   0.5025996  )
       326           F   tau( 326) = (   0.4793011   0.4724703   0.7107217  )
       327           F   tau( 327) = (   0.6031335   0.5441434   0.7106740  )
       328           F   tau( 328) = (   0.6459264   0.4745822   0.5025458  )
       329           C   tau( 329) = (   0.4199076   0.5323888   0.9913041  )
       330           C   tau( 330) = (   0.4955289   0.4819940   1.0311345  )
       331           C   tau( 331) = (   0.5799585   0.5379722   1.0377828  )
       332           C   tau( 332) = (   0.6621824   0.4841792   0.9912342  )
       333           F   tau( 333) = (   0.4362163   0.5419955   0.9071591  )
       334           F   tau( 334) = (   0.4737178   0.4754514   1.1158304  )
       335           F   tau( 335) = (   0.6030127   0.5441260   1.1152334  )
       336           F   tau( 336) = (   0.6495063   0.4723157   0.9088257  )
       337           C   tau( 337) = (   0.3330748   0.6818751   0.1811688  )
       338           C   tau( 338) = (   0.4093457   0.6173629   0.2216043  )
       339           C   tau( 339) = (   0.5054046   0.6756081   0.2220068  )
       340           C   tau( 340) = (   0.5810013   0.6252114   0.1821339  )
       341           F   tau( 341) = (   0.3550352   0.6830277   0.0980588  )
       342           F   tau( 342) = (   0.3979992   0.6134851   0.3061808  )
       343           F   tau( 343) = (   0.5342641   0.6803529   0.3043873  )
       344           F   tau( 344) = (   0.5646245   0.6155969   0.0980050  )
       345           C   tau( 345) = (   0.3386057   0.6734035   0.5867633  )
       346           C   tau( 346) = (   0.4142270   0.6230087   0.6265937  )
       347           C   tau( 347) = (   0.5052838   0.6755907   0.6265663  )
       348           C   tau( 348) = (   0.5808805   0.6251939   0.5866933  )
       349           F   tau( 349) = (   0.3549144   0.6830103   0.5026183  )
       350           F   tau( 350) = (   0.3978784   0.6134676   0.7107403  )
       351           F   tau( 351) = (   0.5217108   0.6851407   0.7106926  )
       352           F   tau( 352) = (   0.5645037   0.6155795   0.5025644  )
       353           C   tau( 353) = (   0.3428451   0.6770063   1.0065147  )
       354           C   tau( 354) = (   0.4223807   0.6163710   1.0255461  )
       355           C   tau( 355) = (   0.5051629   0.6755733   1.0311258  )
       356           C   tau( 356) = (   0.5807597   0.6251765   0.9912528  )
       357           F   tau( 357) = (   0.3547936   0.6829928   0.9071777  )
       358           F   tau( 358) = (   0.3977576   0.6134502   1.1152998  )
       359           F   tau( 359) = (   0.5215900   0.6851233   1.1152521  )
       360           F   tau( 360) = (   0.5660407   0.6258013   0.9113060  )

     number of k points=    20
                       cart. coord. in units 2pi/alat
        k(    1) = (   0.0000000   0.0000000   0.0000000), wk =   0.0625000
        k(    2) = (  -0.0001220  -0.0000160  -0.4119708), wk =   0.0625000
        k(    3) = (  -0.0046415   0.3519363   0.0000138), wk =   0.1250000
        k(    4) = (  -0.0047635   0.3519203  -0.4119570), wk =   0.1250000
        k(    5) = (   0.0092831  -0.7038726  -0.0000276), wk =   0.0625000
        k(    6) = (   0.0091611  -0.7038886  -0.4119984), wk =   0.0625000
        k(    7) = (   0.2481320   0.1432905   0.0000803), wk =   0.1250000
        k(    8) = (   0.2480100   0.1432745  -0.4118905), wk =   0.1250000
        k(    9) = (   0.2434904   0.4952268   0.0000941), wk =   0.1250000
        k(   10) = (   0.2433685   0.4952108  -0.4118767), wk =   0.1250000
        k(   11) = (   0.2574150  -0.5605821   0.0000527), wk =   0.1250000
        k(   12) = (   0.2572930  -0.5605981  -0.4119181), wk =   0.1250000
        k(   13) = (   0.2527735  -0.2086458   0.0000665), wk =   0.1250000
        k(   14) = (   0.2526515  -0.2086618  -0.4119043), wk =   0.1250000
        k(   15) = (  -0.4962640  -0.2865810  -0.0001605), wk =   0.0625000
        k(   16) = (  -0.4963860  -0.2865970  -0.4121313), wk =   0.0625000
        k(   17) = (  -0.5009055   0.0653553  -0.0001468), wk =   0.1250000
        k(   18) = (  -0.5010275   0.0653393  -0.4121176), wk =   0.1250000
        k(   19) = (  -0.4869809  -0.9904536  -0.0001881), wk =   0.0625000
        k(   20) = (  -0.4871029  -0.9904696  -0.4121589), wk =   0.0625000

     Dense  grid:  5171715 G-vectors     FFT dimensions: ( 225, 192, 288)

     Estimated max dynamical RAM per process >       1.10 GB

     Estimated total dynamical RAM >     281.19 GB

     Initial potential from superposition of free atoms

     starting charge    1978.6826, renormalised to    1980.0000
     Starting wfcs are random

     total cpu time spent up to now is      652.8 secs

     Self-consistent Calculation

     iteration #  1     ecut=   140.00 Ry     beta= 0.70
     Davidson diagonalization with overlap
     ethr =  1.00E-02,  avg # of iterations = 14.1

     Threshold (ethr) on eigenvalues was too large:
     Diagonalizing with lowered threshold

     Davidson diagonalization with overlap
     ethr =  7.24E-04,  avg # of iterations =  4.0

     total cpu time spent up to now is    10154.2 secs

     total energy              =  -10635.16989005 Ry
     estimated scf accuracy    <      16.03438200 Ry

     iteration #  2     ecut=   140.00 Ry     beta= 0.70
     Davidson diagonalization with overlap
     ethr =  8.10E-04,  avg # of iterations =  3.6

     total cpu time spent up to now is    12521.1 secs

     total energy              =  -10637.27344721 Ry
     estimated scf accuracy    <       2.49415948 Ry

     iteration #  3     ecut=   140.00 Ry     beta= 0.70
     Davidson diagonalization with overlap
     ethr =  1.26E-04,  avg # of iterations =  4.2

     total cpu time spent up to now is    15044.0 secs

     total energy              =  -10637.90399866 Ry
     estimated scf accuracy    <       0.48095001 Ry

     iteration #  4     ecut=   140.00 Ry     beta= 0.70
     Davidson diagonalization with overlap
     ethr =  2.43E-05,  avg # of iterations =  5.8

     total cpu time spent up to now is    17424.4 secs

     total energy              =  -10637.97414707 Ry
     estimated scf accuracy    <       0.20962479 Ry

     iteration #  5     ecut=   140.00 Ry     beta= 0.70
     Davidson diagonalization with overlap
     ethr =  1.06E-05,  avg # of iterations =  5.4

     total cpu time spent up to now is    19655.0 secs

     total energy              =  -10638.02246554 Ry
     estimated scf accuracy    <       0.02691892 Ry

     iteration #  6     ecut=   140.00 Ry     beta= 0.70
     Davidson diagonalization with overlap
     ethr =  1.36E-06,  avg # of iterations =  5.5

     total cpu time spent up to now is    22114.8 secs

     total energy              =  -10638.02763150 Ry
     estimated scf accuracy    <       0.00986078 Ry

     iteration #  7     ecut=   140.00 Ry     beta= 0.70
     Davidson diagonalization with overlap
     ethr =  4.98E-07,  avg # of iterations =  5.0

     total cpu time spent up to now is    24300.7 secs

     total energy              =  -10638.02924306 Ry
     estimated scf accuracy    <       0.00051469 Ry

     iteration #  8     ecut=   140.00 Ry     beta= 0.70
     Davidson diagonalization with overlap
     ethr =  2.60E-08,  avg # of iterations =  6.4

     total cpu time spent up to now is    27034.6 secs

     total energy              =  -10638.02942374 Ry
     estimated scf accuracy    <       0.00013709 Ry

     iteration #  9     ecut=   140.00 Ry     beta= 0.70
     Davidson diagonalization with overlap
     ethr =  6.92E-09,  avg # of iterations =  6.0

     total cpu time spent up to now is    29403.5 secs

     total energy              =  -10638.02945075 Ry
     estimated scf accuracy    <       0.00002609 Ry

     iteration # 10     ecut=   140.00 Ry     beta= 0.70
     Davidson diagonalization with overlap
     ethr =  1.32E-09,  avg # of iterations =  6.0

     total cpu time spent up to now is    31805.3 secs

     total energy              =  -10638.02945433 Ry
     estimated scf accuracy    <       0.00000961 Ry

     iteration # 11     ecut=   140.00 Ry     beta= 0.70
     Davidson diagonalization with overlap
     ethr =  4.85E-10,  avg # of iterations =  6.2

     total cpu time spent up to now is    34096.7 secs

     total energy              =  -10638.02945589 Ry
     estimated scf accuracy    <       0.00000116 Ry

     iteration # 12     ecut=   140.00 Ry     beta= 0.70
     Davidson diagonalization with overlap
     ethr =  5.86E-11,  avg # of iterations =  7.6

     total cpu time spent up to now is    36806.9 secs

     End of self-consistent calculation

          k = 0.0000 0.0000 0.0000 (646519 PWs)   bands (ev):

   -26.6863 -25.8741 -24.1198 -23.8817 -23.5569 -23.1048 -22.7858 -22.6892
   -22.6590 -22.5264 -22.4777 -22.4435 -22.1540 -22.1090 -22.0942 -22.0740
   -22.0139 -22.0023 -21.9725 -21.9547 -21.9397 -21.8964 -21.8932 -21.8735
   -21.8506 -21.8434 -21.8390 -21.8250 -21.8098 -21.7969 -21.7801 -21.7554
   -21.7542 -21.7518 -21.7105 -21.6845 -21.6691 -21.6645 -21.6465 -21.6352
   -21.6323 -21.6067 -21.6056 -21.6031 -21.5808 -21.5738 -21.5652 -21.5453
   -21.5451 -21.5441 -21.5416 -21.5324 -21.5278 -21.5188 -21.4956 -21.4852
   -21.4802 -21.4762 -21.4545 -21.4519 -21.4402 -21.4398 -21.4333 -21.4255
   -21.4045 -21.4006 -21.3848 -21.3446 -21.3273 -21.3182 -21.3126 -21.3018
   -21.3016 -21.2807 -21.2789 -21.2570 -21.2474 -21.2299 -21.2108 -21.2037
   -21.1995 -21.1928 -21.1911 -21.1825 -21.1678 -21.1621 -21.1562 -21.1519
   -21.1340 -21.0990 -21.0973 -21.0715 -21.0633 -21.0574 -21.0555 -21.0452
   -21.0439 -21.0317 -21.0055 -20.9981 -20.9833 -20.9788 -20.9732 -20.9592
   -20.9558 -20.9486 -20.9379 -20.9326 -20.9072 -20.9036 -20.8841 -20.8744
   -20.8665 -20.8580 -20.8509 -20.8446 -20.8413 -20.8229 -20.8117 -20.8091
   -20.8082 -20.7980 -20.7925 -20.7739 -20.7655 -20.7639 -20.7528 -20.7516
   -20.7495 -20.7304 -20.7226 -20.7159 -20.6989 -20.6910 -20.6833 -20.6753
   -20.6737 -20.6642 -20.6574 -20.6460 -20.6333 -20.6200 -20.6114 -20.6034
   -20.6029 -20.5771 -20.5662 -20.5527 -20.5482 -20.5179 -20.4933 -20.4921
   -20.4831 -20.4755 -20.4116 -20.3770 -20.3294 -20.3181 -20.2955 -20.2858
   -20.2663 -20.2014 -20.1769 -20.1121 -20.0573 -19.9993 -19.9213 -19.8485
   -19.7847 -19.7536 -19.6435 -19.6324 -19.6023 -19.4596 -19.0698 -19.0502
   -19.0306 -18.5747 -18.4798 -17.7508 -12.9682 -12.7226 -12.5716 -12.5169
   -12.4463 -12.4282 -12.2978 -12.1650 -12.1119 -12.1010 -12.0967 -12.0177
   -12.0133 -11.9969 -11.9805 -11.9338 -11.9025 -11.8841 -11.8346 -11.8001
   -11.6884 -11.5450 -11.3756 -11.3616 -11.3431 -11.2625 -11.1862 -11.1526
   -11.1307 -11.0792 -11.0107 -10.9853 -10.9618 -10.9362 -10.8938 -10.8676
   -10.8501 -10.8178 -10.7533 -10.6782 -10.6583 -10.6314 -10.5905 -10.5836
   -10.5507 -10.4680 -10.4414 -10.4022 -10.3495 -10.3054 -10.2534 -10.2412
   -10.0982 -10.0760  -9.9937  -9.9826  -9.8489  -9.7983  -9.7778  -9.7193
    -9.7145  -9.5961  -9.5600  -9.5345  -9.4854  -9.4409  -9.4080  -9.3907
    -9.3689  -9.3189  -9.2989  -9.2903  -9.2216  -9.2097  -9.1991  -9.1676
    -9.0614  -8.9728  -8.8369  -8.8246  -8.7710  -8.7365  -8.7284  -8.6682
    -8.5690  -8.5304  -8.4473  -8.4386  -8.3897  -8.2399  -8.2213  -8.1483
    -8.0238  -7.9594  -7.9479  -7.8546  -7.8393  -7.8268  -7.8035  -7.7922
    -7.7576  -7.6717  -7.6442  -7.6394  -7.5816  -7.5659  -7.5366  -7.4919
    -7.4775  -7.4241  -7.4144  -7.4052  -7.3008  -7.2903  -7.2091  -7.1838
    -7.1567  -7.0990  -7.0497  -7.0087  -7.0029  -6.9213  -6.8874  -6.8748
    -6.8335  -6.7893  -6.7728  -6.7230  -6.6677  -6.5615  -6.4954  -6.4707
    -6.4311  -6.3867  -6.3784  -6.3662  -6.3071  -6.2992  -6.2904  -6.2512
    -6.2124  -6.1260  -5.9303  -5.9247  -5.8937  -5.8781  -5.8289  -5.8031
    -5.7881  -5.7668  -5.7630  -5.7477  -5.7257  -5.7011  -5.6824  -5.6590
    -5.6406  -5.6272  -5.5832  -5.5326  -5.5123  -5.4977  -5.4448  -5.4052
    -5.3886  -5.3572  -5.3465  -5.3248  -5.3031  -5.2704  -5.2200  -5.1969
    -5.1890  -5.1636  -5.1437  -5.1283  -5.0981  -5.0489  -5.0397  -5.0347
    -5.0260  -5.0022  -4.9916  -4.9584  -4.9504  -4.9296  -4.9190  -4.9118
    -4.8969  -4.8911  -4.8865  -4.8610  -4.8555  -4.8425  -4.8090  -4.7968
    -4.7844  -4.7717  -4.7672  -4.7593  -4.7450  -4.7350  -4.7239  -4.7083
    -4.6936  -4.6906  -4.6811  -4.6597  -4.6559  -4.6509  -4.6279  -4.6083
    -4.6017  -4.5958  -4.5840  -4.5684  -4.5631  -4.5422  -4.5241  -4.5167
    -4.5049  -4.4903  -4.4804  -4.4685  -4.4518  -4.4279  -4.4027  -4.3789
    -4.3732  -4.3580  -4.3489  -4.3418  -4.3268  -4.3022  -4.3011  -4.2893
    -4.2855  -4.2626  -4.2519  -4.2444  -4.2092  -4.2048  -4.1986  -4.1857
    -4.1665  -4.1594  -4.1427  -4.1320  -4.1066  -4.1005  -4.0848  -4.0811
    -4.0752  -4.0690  -4.0649  -4.0452  -4.0180  -4.0143  -3.9967  -3.9777
    -3.9730  -3.9598  -3.9513  -3.9456  -3.9211  -3.9155  -3.9074  -3.9027
    -3.8965  -3.8884  -3.8726  -3.8641  -3.8472  -3.8399  -3.8177  -3.7945
    -3.7867  -3.7829  -3.7774  -3.7616  -3.7483  -3.7183  -3.7088  -3.6914
    -3.6667  -3.6634  -3.6472  -3.6432  -3.6332  -3.6327  -3.6272  -3.6179
    -3.6141  -3.5882  -3.5719  -3.5576  -3.5406  -3.5240  -3.5180  -3.5148
    -3.4908  -3.4823  -3.4695  -3.4623  -3.4497  -3.4389  -3.4310  -3.4199
    -3.4162  -3.4020  -3.3927  -3.3893  -3.3881  -3.3730  -3.3660  -3.3635
    -3.3260  -3.3143  -3.3039  -3.2912  -3.2859  -3.2832  -3.2742  -3.2677
    -3.2556  -3.2335  -3.2204  -3.2131  -3.2060  -3.2012  -3.1969  -3.1855
    -3.1721  -3.1649  -3.1544  -3.1401  -3.1341  -3.1247  -3.1187  -3.1088
    -3.1029  -3.0921  -3.0833  -3.0674  -3.0476  -3.0441  -3.0169  -3.0110
    -3.0078  -3.0019  -2.9934  -2.9780  -2.9712  -2.9568  -2.9436  -2.9311
    -2.9183  -2.9120  -2.9004  -2.8949  -2.8869  -2.8697  -2.8610  -2.8543
    -2.8447  -2.8380  -2.8213  -2.8162  -2.7990  -2.7883  -2.7790  -2.7682
    -2.7613  -2.7358  -2.7205  -2.7181  -2.7128  -2.7083  -2.6975  -2.6650
    -2.6460  -2.6270  -2.6032  -2.5961  -2.5914  -2.5818  -2.5651  -2.5560
    -2.5270  -2.5205  -2.5169  -2.5047  -2.4995  -2.4809  -2.4716  -2.4453
    -2.4363  -2.4245  -2.4223  -2.4123  -2.4017  -2.3747  -2.3649  -2.3297
    -2.3202  -2.3138  -2.3070  -2.3029  -2.2951  -2.2931  -2.2857  -2.2760
    -2.2662  -2.2607  -2.2449  -2.2079  -2.1719  -2.1661  -2.1454  -2.1265
    -2.1188  -2.0922  -2.0657  -2.0499  -2.0405  -2.0206  -2.0047  -1.9899
    -1.9765  -1.9352  -1.9173  -1.8822  -1.8627  -1.8493  -1.7774  -1.7088
    -1.6917  -1.6788  -1.6463  -1.5812  -1.5520  -1.4635  -1.4511  -1.3854
    -1.3767  -1.3456  -1.3392  -1.2990  -1.2849  -1.2689  -1.2557  -1.2348
    -1.2190  -1.2092  -1.1776  -1.1686  -1.1575  -1.1542  -1.1413  -1.1281
    -1.1200  -1.1157  -1.0988  -1.0833  -1.0677  -1.0576  -1.0483  -1.0108
    -0.9940  -0.9802  -0.9725  -0.9566  -0.9439  -0.9389  -0.9261  -0.9120
    -0.8879  -0.8805  -0.8641  -0.8496  -0.8286  -0.8237  -0.8119  -0.8061
    -0.7927  -0.7880  -0.7733  -0.7666  -0.7571  -0.7454  -0.7372  -0.7354
    -0.7171  -0.6930  -0.6801  -0.6740  -0.6703  -0.6616  -0.6574  -0.6297
    -0.6275  -0.6205  -0.6147  -0.6088  -0.6032  -0.5993  -0.5817  -0.5813
    -0.5790  -0.5567  -0.5548  -0.5366  -0.5290  -0.5266  -0.5076  -0.4971
    -0.4929  -0.4902  -0.4801  -0.4704  -0.4613  -0.4589  -0.4487  -0.4434
    -0.4335  -0.4244  -0.4197  -0.3955  -0.3782  -0.3700  -0.3618  -0.3605
    -0.3579  -0.3329  -0.3306  -0.3256  -0.3122  -0.3030  -0.2994  -0.2948
    -0.2888  -0.2754  -0.2690  -0.2664  -0.2620  -0.2397  -0.2189  -0.2106
    -0.2009  -0.1839  -0.1760  -0.1589  -0.1422  -0.1396  -0.1320  -0.1295
    -0.1123  -0.1010  -0.0975  -0.0902  -0.0835  -0.0752  -0.0645  -0.0575
    -0.0490  -0.0376  -0.0350  -0.0271  -0.0174  -0.0154  -0.0075  -0.0043
     0.0056   0.0198   0.0397   0.0550   0.0625   0.0675   0.0731   0.0797
     0.0818   0.0925   0.0994   0.1156   0.1244   0.1266   0.1391   0.1465
     0.1548   0.1598   0.1635   0.1847   0.1918   0.1966   0.2038   0.2055
     0.2178   0.2227   0.2426   0.2542   0.2561   0.2617   0.2993   0.3018
     0.3065   0.3086   0.3169   0.3193   0.3351   0.3376   0.3399   0.3472
     0.3530   0.3681   0.3700   0.3746   0.3835   0.3998   0.4099   0.4136
     0.4194   0.4254   0.4339   0.4341   0.4461   0.4591   0.4656   0.4699
     0.4725   0.4856   0.5021   0.5053   0.5195   0.5216   0.5314   0.5435
     0.5448   0.5489   0.5650   0.5751   0.5832   0.5873   0.5930   0.6030
     0.6138   0.6243   0.6391   0.6582   0.6633   0.6800   0.6818   0.6858
     0.6943   0.7163   0.7170   0.7257   0.7281   0.7498   0.7791   0.7904
     0.7944   0.7993   0.8283   0.8398   0.8475   0.8582   0.8740   0.8797
     0.8945   0.9184   0.9291   0.9672   0.9698   0.9814   0.9855   1.0002
     1.0089   1.0207   1.0457   1.0555   1.0591   1.0672   1.0785   1.0856
     1.0959   1.1067   1.1270   1.1356   1.1525   1.1543   1.1559   1.1634
     1.1738   1.1912   1.1941   1.2000   1.2077   1.2130   1.2309   1.2330
     1.2349   1.2580   1.2687   1.2824   1.2896   1.2949   1.3049   1.3130
     1.3291   1.3384   1.3403   1.3415   1.3563   1.3720   1.3885   1.3951
     1.4080   1.4188   1.4206   1.4295   1.4475   1.4873   1.4947   1.4965
     1.5086   1.5159   1.5473   1.5518   1.5925   1.6023   1.6191   1.6310
     1.6325   1.6525   1.6576   1.6655   1.6760   1.6889   1.7079   1.7094
     1.7532   1.7613   1.7798   1.7856   1.7978   1.8056   1.8093   1.8227
     1.8313   1.8375   1.8446   1.8645   1.8728   1.8998   1.9068   1.9139
     1.9264   1.9452   1.9476   1.9653   1.9689   1.9914   2.0054   2.0205
     2.0274   2.0378   2.1034   2.1090   2.1136   2.1263   2.1666   2.1794
     2.2075   2.2180   2.2414   2.2927   2.3388   2.3566   2.3674   2.3842
     2.4008   2.4504   2.4649   2.4698   2.4762   2.5007   2.5109   2.5302
     2.5330   2.6125   2.6228   2.6617   2.7055   2.7596   2.7851   2.8134
     2.8777   2.9309   2.9805   3.0425   3.0508   3.1179   3.2873   3.3780
     3.4621   3.4659   3.5552   3.8517   3.8932   4.0695

          k =-0.0001-0.0000-0.4120 (646412 PWs)   bands (ev):

   -26.6863 -25.8741 -24.1198 -23.8817 -23.5569 -23.1048 -22.7858 -22.6892
   -22.6590 -22.5264 -22.4777 -22.4435 -22.1540 -22.1090 -22.0941 -22.0741
   -22.0139 -22.0023 -21.9725 -21.9547 -21.9397 -21.8964 -21.8932 -21.8735
   -21.8506 -21.8434 -21.8390 -21.8250 -21.8098 -21.7969 -21.7801 -21.7554
   -21.7542 -21.7518 -21.7105 -21.6845 -21.6691 -21.6645 -21.6465 -21.6352
   -21.6323 -21.6069 -21.6052 -21.6033 -21.5808 -21.5738 -21.5652 -21.5453
   -21.5451 -21.5441 -21.5416 -21.5324 -21.5279 -21.5188 -21.4956 -21.4852
   -21.4802 -21.4761 -21.4545 -21.4519 -21.4403 -21.4397 -21.4333 -21.4255
   -21.4044 -21.4006 -21.3848 -21.3446 -21.3273 -21.3182 -21.3126 -21.3018
   -21.3016 -21.2807 -21.2789 -21.2570 -21.2474 -21.2299 -21.2108 -21.2038
   -21.1994 -21.1927 -21.1912 -21.1825 -21.1678 -21.1621 -21.1562 -21.1519
   -21.1340 -21.0990 -21.0972 -21.0715 -21.0633 -21.0574 -21.0555 -21.0452
   -21.0439 -21.0317 -21.0055 -20.9981 -20.9833 -20.9788 -20.9732 -20.9592
   -20.9558 -20.9486 -20.9379 -20.9326 -20.9072 -20.9036 -20.8841 -20.8744
   -20.8665 -20.8580 -20.8509 -20.8446 -20.8413 -20.8229 -20.8117 -20.8091
   -20.8081 -20.7980 -20.7925 -20.7739 -20.7655 -20.7639 -20.7528 -20.7515
   -20.7495 -20.7304 -20.7226 -20.7159 -20.6989 -20.6910 -20.6833 -20.6752
   -20.6738 -20.6642 -20.6573 -20.6460 -20.6333 -20.6200 -20.6114 -20.6034
   -20.6029 -20.5771 -20.5662 -20.5527 -20.5482 -20.5179 -20.4932 -20.4921
   -20.4831 -20.4755 -20.4116 -20.3770 -20.3294 -20.3181 -20.2955 -20.2858
   -20.2663 -20.2014 -20.1769 -20.1121 -20.0573 -19.9993 -19.9213 -19.8485
   -19.7847 -19.7536 -19.6435 -19.6324 -19.6023 -19.4596 -19.0698 -19.0502
   -19.0306 -18.5747 -18.4798 -17.7508 -12.9682 -12.7226 -12.5716 -12.5169
   -12.4463 -12.4282 -12.2978 -12.1650 -12.1117 -12.1014 -12.0964 -12.0175
   -12.0136 -11.9968 -11.9805 -11.9338 -11.9026 -11.8841 -11.8346 -11.8000
   -11.6884 -11.5450 -11.3756 -11.3616 -11.3430 -11.2625 -11.1862 -11.1527
   -11.1306 -11.0792 -11.0107 -10.9853 -10.9617 -10.9362 -10.8938 -10.8677
   -10.8501 -10.8178 -10.7533 -10.6781 -10.6583 -10.6314 -10.5905 -10.5837
   -10.5507 -10.4680 -10.4414 -10.4022 -10.3495 -10.3054 -10.2534 -10.2412
   -10.0982 -10.0760  -9.9937  -9.9826  -9.8489  -9.7983  -9.7778  -9.7194
    -9.7144  -9.5962  -9.5600  -9.5345  -9.4854  -9.4409  -9.4080  -9.3907
    -9.3689  -9.3189  -9.2989  -9.2903  -9.2216  -9.2097  -9.1991  -9.1676
    -9.0614  -8.9728  -8.8369  -8.8246  -8.7710  -8.7365  -8.7284  -8.6682
    -8.5691  -8.5304  -8.4472  -8.4386  -8.3897  -8.2400  -8.2213  -8.1483
    -8.0238  -7.9594  -7.9479  -7.8546  -7.8393  -7.8268  -7.8035  -7.7922
    -7.7576  -7.6717  -7.6442  -7.6394  -7.5817  -7.5658  -7.5366  -7.4920
    -7.4775  -7.4240  -7.4144  -7.4053  -7.3010  -7.2900  -7.2091  -7.1838
    -7.1567  -7.0990  -7.0497  -7.0091  -7.0026  -6.9213  -6.8874  -6.8748
    -6.8335  -6.7893  -6.7728  -6.7230  -6.6677  -6.5615  -6.4955  -6.4707
    -6.4310  -6.3866  -6.3788  -6.3663  -6.3075  -6.2988  -6.2896  -6.2511
    -6.2126  -6.1260  -5.9304  -5.9246  -5.8938  -5.8781  -5.8291  -5.8033
    -5.7878  -5.7679  -5.7627  -5.7475  -5.7273  -5.7002  -5.6823  -5.6587
    -5.6410  -5.6247  -5.5829  -5.5329  -5.5115  -5.4995  -5.4463  -5.4051
    -5.3878  -5.3619  -5.3430  -5.3262  -5.2969  -5.2711  -5.2218  -5.1957
    -5.1871  -5.1664  -5.1435  -5.1275  -5.0995  -5.0518  -5.0391  -5.0319
    -5.0270  -5.0028  -4.9923  -4.9576  -4.9472  -4.9296  -4.9196  -4.9093
    -4.8995  -4.8935  -4.8765  -4.8659  -4.8554  -4.8424  -4.8124  -4.7951
    -4.7853  -4.7719  -4.7686  -4.7606  -4.7449  -4.7332  -4.7246  -4.7089
    -4.6938  -4.6898  -4.6732  -4.6667  -4.6550  -4.6512  -4.6296  -4.6115
    -4.5990  -4.5945  -4.5847  -4.5702  -4.5628  -4.5411  -4.5239  -4.5173
    -4.5101  -4.4887  -4.4810  -4.4588  -4.4530  -4.4315  -4.4019  -4.3787
    -4.3743  -4.3585  -4.3498  -4.3431  -4.3273  -4.3033  -4.3008  -4.2889
    -4.2852  -4.2626  -4.2519  -4.2448  -4.2090  -4.2045  -4.1987  -4.1858
    -4.1662  -4.1596  -4.1426  -4.1325  -4.1063  -4.1002  -4.0849  -4.0812
    -4.0754  -4.0691  -4.0648  -4.0450  -4.0176  -4.0144  -3.9969  -3.9771
    -3.9738  -3.9594  -3.9511  -3.9460  -3.9209  -3.9150  -3.9081  -3.9016
    -3.8970  -3.8880  -3.8723  -3.8642  -3.8474  -3.8397  -3.8177  -3.7960
    -3.7871  -3.7803  -3.7779  -3.7614  -3.7488  -3.7184  -3.7087  -3.6913
    -3.6672  -3.6630  -3.6469  -3.6428  -3.6348  -3.6311  -3.6270  -3.6181
    -3.6141  -3.5880  -3.5719  -3.5573  -3.5405  -3.5218  -3.5193  -3.5152
    -3.4910  -3.4820  -3.4700  -3.4628  -3.4495  -3.4403  -3.4309  -3.4196
    -3.4147  -3.4007  -3.3958  -3.3889  -3.3844  -3.3723  -3.3656  -3.3646
    -3.3284  -3.3119  -3.3024  -3.2910  -3.2859  -3.2828  -3.2740  -3.2670
    -3.2572  -3.2338  -3.2195  -3.2115  -3.2066  -3.2046  -3.1948  -3.1856
    -3.1715  -3.1692  -3.1509  -3.1435  -3.1315  -3.1256  -3.1161  -3.1104
    -3.1037  -3.0904  -3.0857  -3.0678  -3.0479  -3.0434  -3.0159  -3.0102
    -3.0078  -3.0029  -2.9956  -2.9771  -2.9717  -2.9574  -2.9431  -2.9293
    -2.9189  -2.9123  -2.9011  -2.8935  -2.8853  -2.8715  -2.8606  -2.8547
    -2.8455  -2.8378  -2.8200  -2.8148  -2.8002  -2.7961  -2.7748  -2.7684
    -2.7614  -2.7343  -2.7228  -2.7190  -2.7133  -2.7070  -2.6940  -2.6658
    -2.6476  -2.6278  -2.6003  -2.5957  -2.5910  -2.5807  -2.5687  -2.5568
    -2.5286  -2.5181  -2.5148  -2.5049  -2.5006  -2.4807  -2.4720  -2.4474
    -2.4348  -2.4271  -2.4201  -2.4109  -2.4026  -2.3755  -2.3660  -2.3323
    -2.3171  -2.3135  -2.3072  -2.3011  -2.2930  -2.2908  -2.2875  -2.2822
    -2.2654  -2.2581  -2.2453  -2.2081  -2.1704  -2.1657  -2.1496  -2.1319
    -2.1117  -2.0942  -2.0659  -2.0500  -2.0400  -2.0222  -2.0030  -1.9885
    -1.9755  -1.9319  -1.9193  -1.8893  -1.8611  -1.8455  -1.7772  -1.7077
    -1.6924  -1.6794  -1.6466  -1.5814  -1.5516  -1.4636  -1.4512  -1.3858
    -1.3764  -1.3454  -1.3390  -1.2990  -1.2847  -1.2691  -1.2556  -1.2350
    -1.2194  -1.2083  -1.1783  -1.1687  -1.1593  -1.1496  -1.1425  -1.1291
    -1.1199  -1.1159  -1.0988  -1.0833  -1.0676  -1.0575  -1.0483  -1.0109
    -0.9936  -0.9809  -0.9719  -0.9574  -0.9421  -0.9409  -0.9263  -0.9117
    -0.8880  -0.8805  -0.8642  -0.8495  -0.8293  -0.8232  -0.8105  -0.8078
    -0.7920  -0.7880  -0.7734  -0.7667  -0.7573  -0.7454  -0.7370  -0.7352
    -0.7172  -0.6928  -0.6803  -0.6735  -0.6711  -0.6615  -0.6572  -0.6295
    -0.6281  -0.6199  -0.6151  -0.6088  -0.6032  -0.5992  -0.5819  -0.5810
    -0.5791  -0.5568  -0.5546  -0.5364  -0.5292  -0.5266  -0.5076  -0.4969
    -0.4931  -0.4900  -0.4804  -0.4704  -0.4612  -0.4589  -0.4498  -0.4421
    -0.4339  -0.4240  -0.4200  -0.3955  -0.3782  -0.3697  -0.3628  -0.3597
    -0.3580  -0.3331  -0.3305  -0.3253  -0.3126  -0.3032  -0.2988  -0.2948
    -0.2887  -0.2754  -0.2692  -0.2664  -0.2619  -0.2397  -0.2189  -0.2108
    -0.2006  -0.1837  -0.1761  -0.1588  -0.1424  -0.1398  -0.1314  -0.1297
    -0.1123  -0.1012  -0.0975  -0.0900  -0.0834  -0.0752  -0.0646  -0.0574
    -0.0490  -0.0374  -0.0351  -0.0271  -0.0172  -0.0154  -0.0075  -0.0044
     0.0055   0.0198   0.0397   0.0550   0.0625   0.0674   0.0731   0.0797
     0.0818   0.0926   0.0993   0.1156   0.1244   0.1266   0.1390   0.1466
     0.1548   0.1597   0.1637   0.1846   0.1918   0.1970   0.2038   0.2052
     0.2178   0.2227   0.2425   0.2536   0.2578   0.2608   0.2991   0.3017
     0.3065   0.3086   0.3172   0.3190   0.3359   0.3368   0.3400   0.3472
     0.3528   0.3681   0.3701   0.3746   0.3836   0.3997   0.4099   0.4135
     0.4197   0.4253   0.4336   0.4345   0.4462   0.4592   0.4654   0.4707
     0.4718   0.4855   0.5021   0.5053   0.5199   0.5211   0.5313   0.5427
     0.5461   0.5484   0.5649   0.5750   0.5833   0.5874   0.5930   0.6030
     0.6138   0.6243   0.6391   0.6581   0.6634   0.6800   0.6819   0.6857
     0.6943   0.7164   0.7169   0.7257   0.7281   0.7497   0.7790   0.7904
     0.7944   0.7995   0.8285   0.8396   0.8475   0.8582   0.8739   0.8797
     0.8945   0.9184   0.9291   0.9672   0.9698   0.9814   0.9856   1.0000
     1.0090   1.0207   1.0457   1.0555   1.0591   1.0671   1.0785   1.0855
     1.0960   1.1067   1.1270   1.1356   1.1525   1.1542   1.1560   1.1635
     1.1738   1.1911   1.1940   1.2000   1.2077   1.2129   1.2312   1.2321
     1.2354   1.2580   1.2687   1.2823   1.2897   1.2949   1.3050   1.3130
     1.3290   1.3388   1.3397   1.3418   1.3563   1.3720   1.3886   1.3951
     1.4080   1.4190   1.4205   1.4295   1.4476   1.4873   1.4947   1.4966
     1.5086   1.5159   1.5472   1.5519   1.5926   1.6022   1.6191   1.6310
     1.6324   1.6524   1.6576   1.6655   1.6760   1.6890   1.7079   1.7094
     1.7532   1.7613   1.7798   1.7856   1.7978   1.8054   1.8096   1.8226
     1.8312   1.8378   1.8444   1.8645   1.8728   1.8998   1.9067   1.9140
     1.9264   1.9452   1.9476   1.9653   1.9689   1.9915   2.0054   2.0204
     2.0274   2.0378   2.1035   2.1089   2.1136   2.1263   2.1666   2.1794
     2.2075   2.2180   2.2414   2.2927   2.3388   2.3565   2.3675   2.3842
     2.4008   2.4504   2.4651   2.4695   2.4764   2.5007   2.5109   2.5301
     2.5330   2.6128   2.6226   2.6617   2.7055   2.7596   2.7851   2.8134
     2.8777   2.9309   2.9805   3.0425   3.0508   3.1179   3.2873   3.3780
     3.4621   3.4659   3.5552   3.8517   3.8932   4.0695

          k =-0.0046 0.3519 0.0000 (646515 PWs)   bands (ev):

   -26.6863 -25.8741 -24.1198 -23.8817 -23.5569 -23.1048 -22.7858 -22.6891
   -22.6589 -22.5263 -22.4783 -22.4432 -22.1392 -22.1112 -22.0957 -22.0704
   -22.0206 -22.0059 -22.0002 -21.9548 -21.9514 -21.9306 -21.8914 -21.8653
   -21.8501 -21.8357 -21.8137 -21.8086 -21.8043 -21.7729 -21.7644 -21.7579
   -21.7535 -21.7126 -21.7102 -21.6799 -21.6751 -21.6620 -21.6549 -21.6454
   -21.6271 -21.6228 -21.6102 -21.6083 -21.5995 -21.5869 -21.5793 -21.5721
   -21.5660 -21.5521 -21.5419 -21.5262 -21.5109 -21.5064 -21.4861 -21.4806
   -21.4696 -21.4646 -21.4557 -21.4470 -21.4462 -21.4405 -21.4365 -21.4074
   -21.4009 -21.3869 -21.3817 -21.3712 -21.3391 -21.3319 -21.3218 -21.3171
   -21.3062 -21.2927 -21.2757 -21.2565 -21.2436 -21.2099 -21.2088 -21.2018
   -21.1998 -21.1966 -21.1830 -21.1815 -21.1609 -21.1574 -21.1404 -21.1359
   -21.1241 -21.1028 -21.0999 -21.0930 -21.0726 -21.0694 -21.0682 -21.0524
   -21.0371 -21.0306 -21.0015 -20.9976 -20.9775 -20.9696 -20.9638 -20.9591
   -20.9466 -20.9376 -20.9302 -20.9262 -20.9069 -20.8921 -20.8841 -20.8768
   -20.8753 -20.8662 -20.8523 -20.8419 -20.8265 -20.8221 -20.8179 -20.8120
   -20.8111 -20.7974 -20.7869 -20.7829 -20.7675 -20.7654 -20.7600 -20.7542
   -20.7507 -20.7397 -20.7243 -20.7235 -20.7168 -20.7075 -20.6964 -20.6850
   -20.6806 -20.6605 -20.6429 -20.6405 -20.6167 -20.6116 -20.6109 -20.6037
   -20.5925 -20.5725 -20.5591 -20.5538 -20.5341 -20.5173 -20.5013 -20.4942
   -20.4840 -20.4820 -20.4105 -20.3769 -20.3292 -20.3166 -20.2985 -20.2876
   -20.2648 -20.2011 -20.1763 -20.1118 -20.0575 -19.9993 -19.9219 -19.8486
   -19.7847 -19.7536 -19.6433 -19.6318 -19.6027 -19.4596 -19.0698 -19.0509
   -19.0300 -18.5747 -18.4798 -17.7508 -12.9599 -12.7116 -12.5691 -12.5372
   -12.4721 -12.3903 -12.3455 -12.2276 -12.1728 -12.1290 -12.1169 -12.0950
   -12.0379 -11.9587 -11.9114 -11.8688 -11.7737 -11.7678 -11.7533 -11.6669
   -11.5769 -11.5444 -11.4383 -11.4209 -11.3922 -11.2676 -11.2529 -11.2128
   -11.1833 -11.1443 -11.1291 -11.1276 -11.0827 -11.0219 -10.9651 -10.9561
   -10.8873 -10.7374 -10.7119 -10.6864 -10.6361 -10.6129 -10.5714 -10.5414
   -10.5281 -10.4387 -10.4304 -10.3473 -10.2785 -10.1372 -10.1301 -10.1177
   -10.0046  -9.9902  -9.9310  -9.8579  -9.8225  -9.8014  -9.7082  -9.6963
    -9.6554  -9.6543  -9.5887  -9.5464  -9.5043  -9.4953  -9.4211  -9.3983
    -9.3479  -9.3339  -9.3033  -9.3024  -9.2931  -9.2281  -9.2188  -9.1364
    -9.1230  -9.0558  -9.0487  -8.9582  -8.8796  -8.8514  -8.8461  -8.8435
    -8.7312  -8.6080  -8.5466  -8.2319  -8.1986  -8.1107  -8.1053  -8.0487
    -7.9833  -7.9659  -7.9601  -7.9418  -7.9247  -7.8564  -7.8159  -7.7807
    -7.7216  -7.6684  -7.6384  -7.6230  -7.6170  -7.5254  -7.4842  -7.4299
    -7.4218  -7.4034  -7.3696  -7.3500  -7.2074  -7.2024  -7.1896  -7.1647
    -7.1468  -7.1256  -7.0684  -7.0437  -7.0215  -6.9915  -6.9181  -6.8558
    -6.8258  -6.7492  -6.7082  -6.6870  -6.6060  -6.5981  -6.5801  -6.5067
    -6.4718  -6.4279  -6.3718  -6.3460  -6.2562  -6.2367  -6.1573  -6.1487
    -6.0482  -6.0200  -5.9774  -5.9642  -5.9271  -5.9216  -5.9084  -5.8918
    -5.8777  -5.8492  -5.8397  -5.7864  -5.6975  -5.6666  -5.6463  -5.6188
    -5.5125  -5.4999  -5.4966  -5.4796  -5.4241  -5.3884  -5.3715  -5.3562
    -5.3448  -5.3315  -5.3219  -5.2910  -5.2698  -5.2591  -5.2473  -5.2088
    -5.1942  -5.1862  -5.1581  -5.1440  -5.1307  -5.0970  -5.0774  -5.0598
    -5.0409  -5.0369  -5.0317  -5.0068  -4.9924  -4.9649  -4.9558  -4.9447
    -4.9372  -4.9148  -4.9077  -4.8980  -4.8822  -4.8777  -4.8713  -4.8506
    -4.8387  -4.8314  -4.8211  -4.8120  -4.7894  -4.7809  -4.7700  -4.7628
    -4.7422  -4.7327  -4.7124  -4.7017  -4.6977  -4.6584  -4.6479  -4.6371
    -4.6314  -4.6190  -4.6109  -4.6011  -4.5787  -4.5679  -4.5557  -4.5423
    -4.5339  -4.5142  -4.4974  -4.4749  -4.4585  -4.4525  -4.4404  -4.4189
    -4.4067  -4.3769  -4.3651  -4.3367  -4.3272  -4.3100  -4.3040  -4.2843
    -4.2780  -4.2628  -4.2486  -4.2341  -4.2208  -4.2133  -4.2018  -4.1921
    -4.1735  -4.1694  -4.1657  -4.1552  -4.1414  -4.1353  -4.1085  -4.1013
    -4.0872  -4.0678  -4.0581  -4.0272  -4.0154  -4.0051  -3.9866  -3.9706
    -3.9676  -3.9552  -3.9473  -3.9390  -3.8994  -3.8915  -3.8840  -3.8649
    -3.8571  -3.8391  -3.8302  -3.8194  -3.8040  -3.7990  -3.7859  -3.7774
    -3.7553  -3.7541  -3.7336  -3.7259  -3.7231  -3.7138  -3.6966  -3.6790
    -3.6746  -3.6602  -3.6578  -3.6519  -3.6459  -3.6279  -3.6209  -3.6133
    -3.6105  -3.6017  -3.5820  -3.5769  -3.5582  -3.5535  -3.5310  -3.5250
    -3.5134  -3.5076  -3.4907  -3.4774  -3.4699  -3.4636  -3.4547  -3.4526
    -3.4432  -3.4186  -3.4153  -3.3884  -3.3842  -3.3706  -3.3656  -3.3504
    -3.3419  -3.3274  -3.3255  -3.3041  -3.2955  -3.2688  -3.2594  -3.2303
    -3.2248  -3.2170  -3.2066  -3.1986  -3.1880  -3.1761  -3.1739  -3.1542
    -3.1498  -3.1469  -3.1214  -3.1134  -3.1073  -3.1017  -3.0887  -3.0759
    -3.0687  -3.0617  -3.0541  -3.0400  -3.0304  -3.0241  -3.0103  -2.9902
    -2.9777  -2.9648  -2.9560  -2.9475  -2.9367  -2.9265  -2.9216  -2.9148
    -2.9064  -2.8995  -2.8899  -2.8841  -2.8709  -2.8618  -2.8509  -2.8364
    -2.8192  -2.8148  -2.8076  -2.8011  -2.7898  -2.7821  -2.7762  -2.7643
    -2.7400  -2.7342  -2.7257  -2.7103  -2.6936  -2.6866  -2.6805  -2.6705
    -2.6632  -2.6500  -2.6346  -2.6303  -2.6197  -2.6081  -2.5874  -2.5664
    -2.5589  -2.5512  -2.5348  -2.5315  -2.5137  -2.5041  -2.4939  -2.4781
    -2.4611  -2.4469  -2.4430  -2.4289  -2.4121  -2.3982  -2.3883  -2.3593
    -2.3437  -2.3307  -2.3123  -2.3083  -2.2801  -2.2763  -2.2539  -2.2199
    -2.2066  -2.1994  -2.1934  -2.1813  -2.1451  -2.1294  -2.1101  -2.0968
    -2.0752  -2.0417  -2.0293  -2.0039  -1.9915  -1.9826  -1.9640  -1.9252
    -1.9116  -1.9028  -1.8706  -1.8535  -1.8171  -1.7588  -1.7490  -1.7296
    -1.6955  -1.6826  -1.6639  -1.6098  -1.5948  -1.5223  -1.5060  -1.4970
    -1.3784  -1.3715  -1.3472  -1.3244  -1.3140  -1.3104  -1.2773  -1.2634
    -1.2338  -1.2254  -1.1917  -1.1769  -1.1679  -1.1606  -1.1467  -1.1249
    -1.1196  -1.1090  -1.0860  -1.0810  -1.0774  -1.0561  -1.0523  -1.0305
    -1.0099  -1.0025  -1.0001  -0.9905  -0.9631  -0.9508  -0.9309  -0.9253
    -0.9086  -0.8984  -0.8923  -0.8811  -0.8730  -0.8695  -0.8521  -0.8434
    -0.8299  -0.8246  -0.8023  -0.7895  -0.7695  -0.7653  -0.7554  -0.7446
    -0.7283  -0.7219  -0.7160  -0.7052  -0.6880  -0.6532  -0.6307  -0.6262
    -0.6038  -0.6007  -0.5992  -0.5885  -0.5775  -0.5659  -0.5589  -0.5574
    -0.5453  -0.5401  -0.5330  -0.5169  -0.5156  -0.5034  -0.4959  -0.4879
    -0.4799  -0.4769  -0.4532  -0.4459  -0.4423  -0.4371  -0.4262  -0.4222
    -0.4177  -0.4088  -0.3994  -0.3969  -0.3923  -0.3787  -0.3747  -0.3694
    -0.3462  -0.3427  -0.3368  -0.3308  -0.3265  -0.3066  -0.2999  -0.2925
    -0.2869  -0.2803  -0.2314  -0.2269  -0.2116  -0.2083  -0.1992  -0.1959
    -0.1775  -0.1675  -0.1594  -0.1471  -0.1352  -0.1295  -0.1258  -0.1200
    -0.1112  -0.1091  -0.0951  -0.0910  -0.0855  -0.0766  -0.0652  -0.0603
    -0.0507  -0.0355  -0.0324  -0.0300  -0.0204  -0.0117  -0.0016   0.0000
     0.0058   0.0129   0.0172   0.0270   0.0496   0.0530   0.0659   0.0719
     0.0755   0.0814   0.1018   0.1054   0.1165   0.1185   0.1279   0.1312
     0.1372   0.1563   0.1713   0.1767   0.1916   0.1986   0.2005   0.2065
     0.2181   0.2283   0.2303   0.2347   0.2490   0.2547   0.2735   0.2804
     0.2830   0.3108   0.3146   0.3237   0.3374   0.3460   0.3516   0.3681
     0.3714   0.3732   0.3877   0.3974   0.4007   0.4094   0.4126   0.4205
     0.4344   0.4380   0.4415   0.4536   0.4635   0.4710   0.4852   0.4868
     0.5037   0.5064   0.5079   0.5193   0.5216   0.5256   0.5429   0.5501
     0.5566   0.5758   0.5818   0.5824   0.5932   0.5968   0.6052   0.6219
     0.6276   0.6403   0.6501   0.6572   0.6665   0.6773   0.6815   0.6898
     0.6911   0.6944   0.7280   0.7418   0.7452   0.7654   0.7688   0.7739
     0.7820   0.7962   0.8017   0.8092   0.8274   0.8354   0.8402   0.8755
     0.8843   0.8914   0.8936   0.9273   0.9298   0.9326   0.9511   0.9594
     0.9673   0.9837   1.0090   1.0102   1.0450   1.0487   1.0633   1.0742
     1.0784   1.0839   1.1084   1.1118   1.1260   1.1398   1.1492   1.1546
     1.1582   1.1686   1.1783   1.1808   1.1837   1.2042   1.2139   1.2252
     1.2381   1.2507   1.2533   1.2670   1.2807   1.2893   1.2915   1.3041
     1.3087   1.3207   1.3350   1.3391   1.3399   1.3526   1.3676   1.3796
     1.3943   1.3976   1.4118   1.4170   1.4584   1.4644   1.4906   1.5036
     1.5102   1.5146   1.5231   1.5616   1.5649   1.5660   1.5681   1.5851
     1.6132   1.6156   1.6300   1.6335   1.6727   1.6823   1.7045   1.7085
     1.7249   1.7558   1.7616   1.7655   1.8099   1.8143   1.8226   1.8452
     1.8705   1.8830   1.8936   1.8986   1.9229   1.9252   1.9282   1.9453
     1.9615   1.9727   1.9917   1.9953   2.0668   2.0705   2.0739   2.0792
     2.1015   2.1066   2.1320   2.1483   2.1540   2.1815   2.2147   2.2183
     2.2201   2.2567   2.2676   2.3176   2.3194   2.3322   2.3461   2.3624
     2.3805   2.4038   2.4250   2.4762   2.5072   2.5229   2.5678   2.5941
     2.6379   2.6532   2.6679   2.6722   2.7030   2.7477   2.8042   2.8266
     2.8785   2.9206   2.9382   2.9459   3.0661   3.0799   3.1958   3.3349
     3.3737   3.3854   3.5286   3.7754   3.7997   3.9628

          k =-0.0048 0.3519-0.4120 (646481 PWs)   bands (ev):

   -26.6863 -25.8741 -24.1198 -23.8817 -23.5569 -23.1048 -22.7858 -22.6891
   -22.6589 -22.5263 -22.4783 -22.4432 -22.1392 -22.1112 -22.0957 -22.0704
   -22.0206 -22.0059 -22.0002 -21.9548 -21.9514 -21.9306 -21.8914 -21.8653
   -21.8501 -21.8357 -21.8137 -21.8087 -21.8042 -21.7729 -21.7644 -21.7579
   -21.7535 -21.7126 -21.7102 -21.6799 -21.6751 -21.6620 -21.6548 -21.6454
   -21.6271 -21.6228 -21.6102 -21.6083 -21.5994 -21.5869 -21.5793 -21.5722
   -21.5660 -21.5521 -21.5419 -21.5262 -21.5109 -21.5064 -21.4861 -21.4806
   -21.4696 -21.4646 -21.4557 -21.4470 -21.4461 -21.4405 -21.4365 -21.4074
   -21.4009 -21.3869 -21.3817 -21.3712 -21.3391 -21.3319 -21.3218 -21.3171
   -21.3062 -21.2927 -21.2757 -21.2565 -21.2436 -21.2099 -21.2088 -21.2018
   -21.1998 -21.1966 -21.1830 -21.1815 -21.1609 -21.1574 -21.1404 -21.1359
   -21.1241 -21.1028 -21.0999 -21.0930 -21.0726 -21.0694 -21.0682 -21.0524
   -21.0371 -21.0306 -21.0015 -20.9976 -20.9775 -20.9696 -20.9638 -20.9591
   -20.9466 -20.9376 -20.9302 -20.9262 -20.9069 -20.8921 -20.8841 -20.8769
   -20.8753 -20.8662 -20.8523 -20.8419 -20.8265 -20.8221 -20.8179 -20.8120
   -20.8111 -20.7974 -20.7869 -20.7829 -20.7675 -20.7654 -20.7600 -20.7542
   -20.7507 -20.7397 -20.7243 -20.7235 -20.7168 -20.7075 -20.6964 -20.6850
   -20.6806 -20.6605 -20.6429 -20.6405 -20.6167 -20.6116 -20.6109 -20.6037
   -20.5925 -20.5725 -20.5591 -20.5538 -20.5341 -20.5174 -20.5013 -20.4942
   -20.4840 -20.4820 -20.4105 -20.3769 -20.3292 -20.3166 -20.2985 -20.2876
   -20.2648 -20.2011 -20.1763 -20.1118 -20.0575 -19.9993 -19.9219 -19.8486
   -19.7847 -19.7536 -19.6433 -19.6318 -19.6027 -19.4596 -19.0698 -19.0509
   -19.0300 -18.5747 -18.4798 -17.7508 -12.9599 -12.7116 -12.5691 -12.5373
   -12.4720 -12.3903 -12.3455 -12.2276 -12.1729 -12.1288 -12.1173 -12.0949
   -12.0379 -11.9587 -11.9114 -11.8688 -11.7740 -11.7675 -11.7534 -11.6669
   -11.5769 -11.5443 -11.4383 -11.4209 -11.3922 -11.2677 -11.2528 -11.2128
   -11.1833 -11.1443 -11.1292 -11.1274 -11.0827 -11.0219 -10.9652 -10.9561
   -10.8873 -10.7374 -10.7119 -10.6864 -10.6361 -10.6129 -10.5714 -10.5414
   -10.5281 -10.4387 -10.4304 -10.3473 -10.2785 -10.1372 -10.1301 -10.1177
   -10.0046  -9.9902  -9.9310  -9.8579  -9.8225  -9.8014  -9.7082  -9.6963
    -9.6554  -9.6543  -9.5887  -9.5464  -9.5043  -9.4953  -9.4211  -9.3983
    -9.3479  -9.3339  -9.3033  -9.3025  -9.2931  -9.2281  -9.2188  -9.1364
    -9.1230  -9.0558  -9.0487  -8.9582  -8.8796  -8.8513  -8.8463  -8.8434
    -8.7312  -8.6080  -8.5466  -8.2319  -8.1986  -8.1107  -8.1053  -8.0487
    -7.9834  -7.9660  -7.9600  -7.9417  -7.9248  -7.8564  -7.8159  -7.7807
    -7.7216  -7.6684  -7.6384  -7.6227  -7.6172  -7.5254  -7.4842  -7.4299
    -7.4218  -7.4033  -7.3694  -7.3501  -7.2075  -7.2024  -7.1896  -7.1651
    -7.1463  -7.1257  -7.0684  -7.0436  -7.0217  -6.9914  -6.9181  -6.8558
    -6.8258  -6.7492  -6.7084  -6.6868  -6.6082  -6.5948  -6.5810  -6.5067
    -6.4719  -6.4279  -6.3718  -6.3460  -6.2564  -6.2367  -6.1573  -6.1487
    -6.0483  -6.0205  -5.9770  -5.9644  -5.9291  -5.9170  -5.9096  -5.8918
    -5.8779  -5.8494  -5.8395  -5.7870  -5.6977  -5.6674  -5.6460  -5.6187
    -5.5141  -5.5028  -5.4910  -5.4812  -5.4219  -5.3884  -5.3711  -5.3568
    -5.3469  -5.3294  -5.3221  -5.2910  -5.2718  -5.2596  -5.2461  -5.2052
    -5.1999  -5.1808  -5.1596  -5.1433  -5.1313  -5.0982  -5.0757  -5.0609
    -5.0421  -5.0350  -5.0324  -5.0070  -4.9923  -4.9667  -4.9562  -4.9437
    -4.9351  -4.9138  -4.9066  -4.8942  -4.8884  -4.8760  -4.8707  -4.8543
    -4.8373  -4.8307  -4.8208  -4.8071  -4.7941  -4.7811  -4.7688  -4.7624
    -4.7434  -4.7269  -4.7185  -4.7060  -4.6947  -4.6618  -4.6456  -4.6387
    -4.6298  -4.6202  -4.6108  -4.6009  -4.5787  -4.5685  -4.5532  -4.5433
    -4.5352  -4.5178  -4.4882  -4.4812  -4.4603  -4.4452  -4.4430  -4.4189
    -4.4086  -4.3764  -4.3674  -4.3350  -4.3274  -4.3100  -4.3058  -4.2829
    -4.2785  -4.2624  -4.2489  -4.2342  -4.2207  -4.2127  -4.2034  -4.1918
    -4.1745  -4.1695  -4.1649  -4.1556  -4.1412  -4.1351  -4.1084  -4.1018
    -4.0868  -4.0683  -4.0584  -4.0270  -4.0158  -4.0040  -3.9866  -3.9706
    -3.9672  -3.9572  -3.9437  -3.9407  -3.8980  -3.8916  -3.8854  -3.8650
    -3.8560  -3.8392  -3.8308  -3.8190  -3.8034  -3.7990  -3.7871  -3.7761
    -3.7552  -3.7534  -3.7340  -3.7288  -3.7191  -3.7155  -3.6966  -3.6783
    -3.6750  -3.6612  -3.6578  -3.6501  -3.6467  -3.6278  -3.6212  -3.6129
    -3.6107  -3.6014  -3.5812  -3.5778  -3.5574  -3.5536  -3.5316  -3.5248
    -3.5140  -3.5066  -3.4906  -3.4773  -3.4698  -3.4630  -3.4569  -3.4479
    -3.4445  -3.4182  -3.4152  -3.3882  -3.3849  -3.3700  -3.3645  -3.3515
    -3.3421  -3.3277  -3.3256  -3.3038  -3.2954  -3.2686  -3.2588  -3.2299
    -3.2234  -3.2176  -3.2070  -3.1993  -3.1877  -3.1758  -3.1740  -3.1530
    -3.1518  -3.1462  -3.1199  -3.1154  -3.1065  -3.1003  -3.0903  -3.0761
    -3.0708  -3.0606  -3.0531  -3.0417  -3.0297  -3.0249  -3.0105  -2.9908
    -2.9774  -2.9685  -2.9564  -2.9448  -2.9368  -2.9262  -2.9225  -2.9113
    -2.9095  -2.9001  -2.8907  -2.8816  -2.8715  -2.8607  -2.8519  -2.8357
    -2.8199  -2.8144  -2.8068  -2.8012  -2.7905  -2.7819  -2.7761  -2.7640
    -2.7375  -2.7353  -2.7263  -2.7106  -2.6948  -2.6874  -2.6783  -2.6695
    -2.6638  -2.6522  -2.6355  -2.6284  -2.6215  -2.6062  -2.5842  -2.5695
    -2.5585  -2.5524  -2.5358  -2.5286  -2.5137  -2.5057  -2.4935  -2.4780
    -2.4644  -2.4464  -2.4414  -2.4271  -2.4125  -2.4017  -2.3881  -2.3639
    -2.3413  -2.3296  -2.3128  -2.3079  -2.2801  -2.2751  -2.2544  -2.2193
    -2.2074  -2.1989  -2.1902  -2.1838  -2.1478  -2.1290  -2.1095  -2.0965
    -2.0744  -2.0417  -2.0278  -2.0042  -1.9907  -1.9839  -1.9631  -1.9260
    -1.9131  -1.9022  -1.8705  -1.8535  -1.8170  -1.7603  -1.7465  -1.7288
    -1.6928  -1.6868  -1.6636  -1.6096  -1.5947  -1.5223  -1.5064  -1.4966
    -1.3798  -1.3705  -1.3469  -1.3243  -1.3142  -1.3105  -1.2768  -1.2638
    -1.2333  -1.2257  -1.1915  -1.1766  -1.1691  -1.1607  -1.1463  -1.1231
    -1.1207  -1.1092  -1.0848  -1.0812  -1.0779  -1.0562  -1.0525  -1.0307
    -1.0095  -1.0033  -0.9993  -0.9904  -0.9636  -0.9502  -0.9299  -0.9269
    -0.9086  -0.8985  -0.8926  -0.8807  -0.8724  -0.8699  -0.8520  -0.8436
    -0.8300  -0.8244  -0.8022  -0.7895  -0.7698  -0.7649  -0.7554  -0.7449
    -0.7277  -0.7220  -0.7162  -0.7055  -0.6881  -0.6534  -0.6303  -0.6264
    -0.6038  -0.6015  -0.5985  -0.5886  -0.5774  -0.5662  -0.5590  -0.5571
    -0.5453  -0.5403  -0.5329  -0.5169  -0.5159  -0.5031  -0.4960  -0.4879
    -0.4801  -0.4767  -0.4532  -0.4461  -0.4420  -0.4373  -0.4262  -0.4220
    -0.4177  -0.4086  -0.3993  -0.3972  -0.3920  -0.3791  -0.3747  -0.3693
    -0.3463  -0.3427  -0.3363  -0.3315  -0.3262  -0.3065  -0.2998  -0.2929
    -0.2869  -0.2801  -0.2318  -0.2266  -0.2114  -0.2086  -0.1991  -0.1960
    -0.1776  -0.1673  -0.1596  -0.1472  -0.1351  -0.1294  -0.1259  -0.1200
    -0.1110  -0.1093  -0.0951  -0.0909  -0.0856  -0.0765  -0.0651  -0.0604
    -0.0506  -0.0359  -0.0319  -0.0300  -0.0203  -0.0117  -0.0018   0.0003
     0.0058   0.0129   0.0171   0.0270   0.0498   0.0526   0.0660   0.0718
     0.0756   0.0814   0.1017   0.1056   0.1166   0.1184   0.1280   0.1311
     0.1371   0.1561   0.1711   0.1771   0.1914   0.1987   0.2005   0.2067
     0.2182   0.2284   0.2301   0.2348   0.2490   0.2546   0.2734   0.2807
     0.2827   0.3108   0.3147   0.3236   0.3374   0.3460   0.3517   0.3682
     0.3712   0.3732   0.3877   0.3972   0.4011   0.4093   0.4126   0.4205
     0.4346   0.4378   0.4414   0.4537   0.4635   0.4709   0.4851   0.4870
     0.5041   0.5063   0.5076   0.5192   0.5218   0.5255   0.5428   0.5503
     0.5564   0.5758   0.5816   0.5827   0.5933   0.5967   0.6052   0.6218
     0.6276   0.6402   0.6500   0.6573   0.6665   0.6774   0.6815   0.6892
     0.6919   0.6941   0.7280   0.7419   0.7450   0.7653   0.7689   0.7738
     0.7820   0.7962   0.8018   0.8092   0.8274   0.8355   0.8401   0.8756
     0.8841   0.8911   0.8940   0.9274   0.9299   0.9322   0.9512   0.9594
     0.9673   0.9838   1.0089   1.0102   1.0450   1.0487   1.0633   1.0742
     1.0784   1.0839   1.1083   1.1119   1.1260   1.1398   1.1494   1.1548
     1.1578   1.1688   1.1779   1.1813   1.1837   1.2041   1.2139   1.2251
     1.2381   1.2507   1.2533   1.2670   1.2808   1.2894   1.2915   1.3038
     1.3089   1.3208   1.3351   1.3388   1.3401   1.3526   1.3676   1.3796
     1.3944   1.3975   1.4119   1.4170   1.4584   1.4644   1.4906   1.5036
     1.5100   1.5149   1.5231   1.5617   1.5644   1.5664   1.5681   1.5850
     1.6132   1.6156   1.6299   1.6335   1.6727   1.6823   1.7046   1.7083
     1.7249   1.7557   1.7620   1.7653   1.8098   1.8143   1.8226   1.8452
     1.8704   1.8830   1.8937   1.8986   1.9232   1.9248   1.9283   1.9453
     1.9615   1.9727   1.9918   1.9952   2.0669   2.0703   2.0739   2.0793
     2.1015   2.1066   2.1320   2.1483   2.1540   2.1815   2.2148   2.2180
     2.2203   2.2566   2.2676   2.3176   2.3194   2.3322   2.3461   2.3624
     2.3805   2.4038   2.4249   2.4762   2.5072   2.5229   2.5678   2.5941
     2.6379   2.6532   2.6680   2.6721   2.7030   2.7477   2.8042   2.8266
     2.8785   2.9206   2.9382   2.9459   3.0661   3.0799   3.1958   3.3349
     3.3737   3.3854   3.5286   3.7754   3.7997   3.9628

          k = 0.0093-0.7039-0.0000 (646442 PWs)   bands (ev):

   -26.6863 -25.8741 -24.1198 -23.8817 -23.5569 -23.1047 -22.7857 -22.6891
   -22.6588 -22.5262 -22.4789 -22.4428 -22.1158 -22.1130 -22.0971 -22.0663
   -22.0426 -22.0273 -21.9983 -21.9682 -21.9584 -21.9495 -21.8884 -21.8504
   -21.8334 -21.8291 -21.8087 -21.8080 -21.7680 -21.7655 -21.7607 -21.7569
   -21.7244 -21.7138 -21.7112 -21.6852 -21.6813 -21.6761 -21.6598 -21.6567
   -21.6277 -21.6245 -21.6162 -21.6076 -21.6038 -21.5950 -21.5682 -21.5625
   -21.5599 -21.5568 -21.5558 -21.5260 -21.5203 -21.5138 -21.4981 -21.4869
   -21.4833 -21.4602 -21.4524 -21.4518 -21.4468 -21.4258 -21.4232 -21.4048
   -21.3925 -21.3803 -21.3678 -21.3643 -21.3600 -21.3468 -21.3330 -21.3153
   -21.3127 -21.3096 -21.2748 -21.2540 -21.2494 -21.2139 -21.2093 -21.2002
   -21.1870 -21.1860 -21.1813 -21.1682 -21.1551 -21.1545 -21.1429 -21.1385
   -21.1116 -21.1107 -21.0941 -21.0846 -21.0815 -21.0750 -21.0680 -21.0551
   -21.0452 -21.0331 -21.0317 -20.9884 -20.9702 -20.9651 -20.9538 -20.9530
   -20.9262 -20.9164 -20.9154 -20.9120 -20.9086 -20.9046 -20.8883 -20.8797
   -20.8643 -20.8612 -20.8488 -20.8425 -20.8411 -20.8370 -20.8275 -20.8250
   -20.8200 -20.8096 -20.7781 -20.7764 -20.7727 -20.7669 -20.7623 -20.7528
   -20.7406 -20.7399 -20.7345 -20.7233 -20.7170 -20.7148 -20.6979 -20.6902
   -20.6872 -20.6699 -20.6646 -20.6366 -20.6132 -20.6107 -20.6043 -20.6026
   -20.5697 -20.5551 -20.5546 -20.5415 -20.5279 -20.5174 -20.5168 -20.4971
   -20.4951 -20.4811 -20.4094 -20.3769 -20.3290 -20.3150 -20.3015 -20.2895
   -20.2634 -20.2009 -20.1757 -20.1116 -20.0578 -19.9993 -19.9224 -19.8488
   -19.7846 -19.7536 -19.6431 -19.6311 -19.6032 -19.4596 -19.0698 -19.0514
   -19.0294 -18.5747 -18.4798 -17.7508 -12.9509 -12.6985 -12.5984 -12.4987
   -12.4517 -12.4383 -12.4098 -12.2510 -12.2215 -12.1373 -12.1188 -12.1047
   -12.0726 -11.8664 -11.8414 -11.8316 -11.7096 -11.6274 -11.6181 -11.5651
   -11.5512 -11.5247 -11.5091 -11.5037 -11.4288 -11.3214 -11.2921 -11.2773
   -11.2494 -11.1851 -11.1703 -11.1222 -11.0885 -11.0869 -11.0362 -11.0335
   -10.9133 -10.9013 -10.8676 -10.8328 -10.7300 -10.7074 -10.5753 -10.3759
   -10.3056 -10.2718 -10.2100 -10.1604 -10.1507 -10.1170  -9.9702  -9.9598
    -9.9401  -9.9215  -9.8482  -9.7815  -9.7638  -9.7397  -9.6889  -9.6647
    -9.6557  -9.6476  -9.6431  -9.5970  -9.5529  -9.5452  -9.5038  -9.4883
    -9.4817  -9.4637  -9.4397  -9.4182  -9.3503  -9.3466  -9.2911  -9.2556
    -9.1601  -9.1068  -8.9926  -8.9449  -8.8986  -8.8718  -8.8252  -8.7615
    -8.6963  -8.5205  -8.4140  -8.3616  -8.2939  -8.2127  -8.1572  -8.1556
    -8.1004  -8.0757  -8.0260  -7.9952  -7.9779  -7.8113  -7.7844  -7.6812
    -7.6787  -7.6527  -7.6301  -7.5823  -7.5753  -7.5435  -7.4763  -7.4169
    -7.3595  -7.3268  -7.2433  -7.2322  -7.1285  -7.0990  -7.0925  -7.0858
    -7.0498  -7.0454  -7.0223  -6.9987  -6.9312  -6.8631  -6.8428  -6.8315
    -6.8282  -6.7835  -6.7674  -6.7146  -6.6967  -6.6764  -6.6157  -6.5460
    -6.5315  -6.4338  -6.4218  -6.4097  -6.3971  -6.3786  -6.3529  -6.1734
    -6.0379  -5.9626  -5.9272  -5.8966  -5.8392  -5.8295  -5.7985  -5.7898
    -5.7631  -5.7510  -5.7200  -5.6892  -5.6848  -5.6646  -5.6502  -5.5660
    -5.5442  -5.5401  -5.4950  -5.4855  -5.4352  -5.4038  -5.3892  -5.3721
    -5.3431  -5.3323  -5.3206  -5.2966  -5.2787  -5.2773  -5.2363  -5.2108
    -5.1939  -5.1667  -5.1546  -5.1342  -5.1245  -5.1070  -5.0907  -5.0845
    -5.0601  -5.0525  -5.0440  -5.0300  -5.0098  -4.9910  -4.9802  -4.9687
    -4.9575  -4.9481  -4.9426  -4.9273  -4.9207  -4.9071  -4.8971  -4.8832
    -4.8721  -4.8654  -4.8637  -4.8370  -4.8101  -4.7936  -4.7890  -4.7758
    -4.7684  -4.7608  -4.7486  -4.7428  -4.7217  -4.7034  -4.6901  -4.6817
    -4.6627  -4.6580  -4.6395  -4.6210  -4.6034  -4.5906  -4.5757  -4.5701
    -4.5582  -4.5528  -4.5344  -4.5320  -4.5222  -4.4680  -4.4444  -4.4375
    -4.4259  -4.4148  -4.3888  -4.3688  -4.3457  -4.3344  -4.3267  -4.3202
    -4.3013  -4.2709  -4.2409  -4.2034  -4.1884  -4.1781  -4.1673  -4.1499
    -4.1430  -4.1291  -4.1199  -4.1173  -4.1098  -4.1004  -4.0898  -4.0798
    -4.0602  -4.0523  -4.0378  -4.0281  -4.0250  -3.9929  -3.9820  -3.9742
    -3.9670  -3.9513  -3.9318  -3.9285  -3.9064  -3.8903  -3.8823  -3.8733
[...]
     atom  133 type  2   force =     0.00238943   -0.00012212   -0.00135177
     atom  134 type  2   force =    -0.00811135   -0.00478910    0.00175729
     atom  135 type  2   force =    -0.00111238   -0.00057798   -0.00033119
     atom  136 type  2   force =    -0.00062306    0.00056764   -0.00101900
     atom  137 type  1   force =    -0.20399055    0.13871288   -0.09664652
     atom  138 type  1   force =     0.36939243   -0.03045152    0.05901407
     atom  139 type  1   force =     0.12818594    0.03678943   -0.08131530
     atom  140 type  1   force =    -0.27209773   -0.11477497   -0.05878583
     atom  141 type  2   force =     0.01752269   -0.02137289    0.00771345
     atom  142 type  2   force =    -0.06029233   -0.01352031    0.09497152
     atom  143 type  2   force =    -0.03809272    0.00404010    0.06285675
     atom  144 type  2   force =     0.02959292    0.04454709   -0.03442220
     atom  145 type  1   force =    -0.02952465   -0.01695318    0.07930719
     atom  146 type  1   force =     0.00408775    0.10605649    0.05453383
     atom  147 type  1   force =    -0.27920393    0.16842765    0.20624897
     atom  148 type  1   force =     0.47292693   -0.35225018   -0.22454643
     atom  149 type  2   force =     0.01569172    0.01957843   -0.12463367
     atom  150 type  2   force =     0.00402840   -0.00888829   -0.01220503
     atom  151 type  2   force =     0.01164734   -0.01640782    0.01953692
     atom  152 type  2   force =    -0.04640677    0.04805824    0.01819000
     atom  153 type  1   force =     0.00074791   -0.00024000   -0.00016629
     atom  154 type  1   force =     0.00361364    0.00031003   -0.00203399
     atom  155 type  1   force =    -0.00074740    0.00015313   -0.00066249
     atom  156 type  1   force =    -0.00151545    0.00003274   -0.00152630
     atom  157 type  2   force =    -0.00058455   -0.00041613    0.00055275
     atom  158 type  2   force =    -0.00002323    0.00028660    0.00122367
     atom  159 type  2   force =     0.00008465   -0.00017560    0.00111998
     atom  160 type  2   force =     0.00024143    0.00043803    0.00087439
     atom  161 type  1   force =    -0.00782073    0.00093598    0.01837868
     atom  162 type  1   force =     0.00008218   -0.05356174    0.03219998
     atom  163 type  1   force =    -0.00852875    0.00810737    0.07311543
     atom  164 type  1   force =    -0.08705349   -0.03853236    0.00181888
     atom  165 type  2   force =     0.00549562   -0.00415098    0.00576335
     atom  166 type  2   force =     0.07325307    0.11296925   -0.04987243
     atom  167 type  2   force =    -0.02672916   -0.00799797   -0.07599255
     atom  168 type  2   force =    -0.03905464   -0.02976981   -0.03474840
     atom  169 type  1   force =    -0.04320633    0.00108639   -0.08093757
     atom  170 type  1   force =     0.00712999    0.00229455   -0.01156694
     atom  171 type  1   force =    -0.01295223    0.01062179    0.02937758
     atom  172 type  1   force =    -0.07591298    0.01049187    0.26885415
     atom  173 type  2   force =     0.04725582    0.01048150    0.10141528
     atom  174 type  2   force =    -0.00349352    0.00627817   -0.00669942
     atom  175 type  2   force =     0.00228742   -0.00756681    0.00158973
     atom  176 type  2   force =    -0.07863630   -0.02647710   -0.36218014
     atom  177 type  1   force =    -0.00002403    0.00024751    0.00027687
     atom  178 type  1   force =     0.00010877    0.00031550   -0.00091487
     atom  179 type  1   force =     0.00020451   -0.00002291   -0.00059828
     atom  180 type  1   force =     0.00037261   -0.00024715    0.00004362
     atom  181 type  2   force =    -0.00022339   -0.00062336    0.00020708
     atom  182 type  2   force =     0.00008124    0.00047524    0.00047351
     atom  183 type  2   force =    -0.00039062   -0.00047108    0.00016568
     atom  184 type  2   force =     0.00031151    0.00066726    0.00027630
     atom  185 type  1   force =    -0.00923795    0.00281274    0.00698124
     atom  186 type  1   force =    -0.00145897    0.00203140   -0.00300761
     atom  187 type  1   force =     0.00539064    0.00517833    0.00062428
     atom  188 type  1   force =     0.00097279   -0.00755282    0.01868478
     atom  189 type  2   force =    -0.00021730    0.00095268    0.00357824
     atom  190 type  2   force =    -0.01102128   -0.01385314    0.00030752
     atom  191 type  2   force =    -0.00488168   -0.00816037   -0.00103089
     atom  192 type  2   force =     0.00377644   -0.00063574    0.00488646
     atom  193 type  1   force =    -0.04716070   -0.31275980   -0.03467417
     atom  194 type  1   force =     0.02783007    0.02000564   -0.01190438
     atom  195 type  1   force =     0.00958086   -0.04027042   -0.03821793
     atom  196 type  1   force =     0.04105494    0.02239556    0.34040649
     atom  197 type  2   force =     0.01682316    0.04393912   -0.01199145
     atom  198 type  2   force =    -0.00264291   -0.00266191   -0.00680515
     atom  199 type  2   force =    -0.00553971    0.02468467   -0.02445287
     atom  200 type  2   force =    -0.07590470   -0.04610512   -0.36553675
     atom  201 type  1   force =    -0.00033181    0.00013565    0.00034256
     atom  202 type  1   force =     0.00008592    0.00047174   -0.00022128
     atom  203 type  1   force =     0.00114054    0.00062208    0.00197421
     atom  204 type  1   force =    -0.00006536    0.00036476    0.00050177
     atom  205 type  2   force =    -0.00031117   -0.00053733   -0.00001719
     atom  206 type  2   force =     0.00017749    0.00029750   -0.00016223
     atom  207 type  2   force =    -0.00072640   -0.00100860   -0.00154975
     atom  208 type  2   force =     0.00030582    0.00028335   -0.00039445
     atom  209 type  1   force =    -0.07195233   -0.02887775   -0.02435543
     atom  210 type  1   force =    -0.02224961    0.01237103    0.02877177
     atom  211 type  1   force =    -0.02007246   -0.02848133   -0.19009742
     atom  212 type  1   force =    -0.01021495    0.00066965   -0.02207562
     atom  213 type  2   force =     0.00054130    0.00295031    0.01309382
     atom  214 type  2   force =     0.02386604    0.00009044   -0.06080640
     atom  215 type  2   force =     0.05787425    0.04190906    0.24107667
     atom  216 type  2   force =     0.00724896   -0.00320183   -0.00189162
     atom  217 type  1   force =    -0.00186113   -0.31824479   -0.09947861
     atom  218 type  1   force =    -0.02885113    0.28789634    0.00211684
     atom  219 type  1   force =    -0.29429149    0.12790539    0.01917780
     atom  220 type  1   force =     0.23078248    0.05076226    0.71673078
     atom  221 type  2   force =     0.00604282   -0.00836697   -0.02731099
     atom  222 type  2   force =     0.01663255   -0.03171975    0.02993315
     atom  223 type  2   force =     0.06874321   -0.03770221   -0.02684128
     atom  224 type  2   force =    -0.11046104   -0.06011097   -0.59757790
     atom  225 type  1   force =     0.02436701   -0.00231517   -0.00782111
     atom  226 type  1   force =     0.00061732    0.00028963   -0.00005669
     atom  227 type  1   force =     0.00152440    0.00078212    0.00339986
     atom  228 type  1   force =    -0.00015064    0.00055276    0.00045436
     atom  229 type  2   force =    -0.00079251   -0.00036789    0.00122775
     atom  230 type  2   force =     0.00016637    0.00035794   -0.00034073
     atom  231 type  2   force =     0.00372367    0.00397194   -0.00517697
     atom  232 type  2   force =     0.00023783    0.00013078   -0.00111566
     atom  233 type  1   force =    -0.04789757   -0.31721049   -0.17341584
     atom  234 type  1   force =     0.13084806    0.17403084    0.00471399
     atom  235 type  1   force =     0.18113762    0.13159594    0.03428399
     atom  236 type  1   force =    -0.04706181   -0.02587590    0.03204970
     atom  237 type  2   force =    -0.03923015    0.02785670    0.10847061
     atom  238 type  2   force =    -0.03639886   -0.03156813    0.05771059
     atom  239 type  2   force =    -0.03032301   -0.05346357    0.00983767
     atom  240 type  2   force =     0.03010115    0.00747061    0.01909297
     atom  241 type  1   force =    -0.02051347    0.04410873    0.00301569
     atom  242 type  1   force =    -0.01698569    0.08301820    0.01361768
     atom  243 type  1   force =     0.01933751    0.00994102   -0.00766469
     atom  244 type  1   force =     0.01571808   -0.02440393    0.03617338
     atom  245 type  2   force =     0.00196715   -0.00363320    0.00133113
     atom  246 type  2   force =    -0.00080420   -0.00384874    0.00248972
     atom  247 type  2   force =     0.00015821   -0.00702298    0.00116727
     atom  248 type  2   force =     0.01354739    0.00690065    0.01898645
     atom  249 type  1   force =    -0.02123820    0.00241535    0.03829611
     atom  250 type  1   force =     0.02482707   -0.02997940    0.09403726
     atom  251 type  1   force =    -0.01436363   -0.00573140    0.03339733
     atom  252 type  1   force =    -0.00062532    0.00136705   -0.00210165
     atom  253 type  2   force =     0.00788176   -0.00739230    0.00831816
     atom  254 type  2   force =    -0.02360962    0.03807287   -0.15963409
     atom  255 type  2   force =     0.01816474   -0.00036746   -0.01343295
     atom  256 type  2   force =     0.00084238   -0.00013372   -0.00150689
     atom  257 type  1   force =     0.07161534   -0.01739685    0.06825316
     atom  258 type  1   force =     0.05138766    0.05771277    0.06913807
     atom  259 type  1   force =     0.00238501    0.01082558    0.00214672
     atom  260 type  1   force =    -0.01285533   -0.00453577   -0.00612510
     atom  261 type  2   force =    -0.00919540    0.02385106   -0.08004442
     atom  262 type  2   force =    -0.00956247    0.02407043    0.04482076
     atom  263 type  2   force =    -0.00061544   -0.00052652   -0.00014679
     atom  264 type  2   force =     0.00143136    0.00809993    0.00382915
     atom  265 type  1   force =    -0.00589820   -0.05911389   -0.01881286
     atom  266 type  1   force =    -0.04338859    0.04534845   -0.03814983
     atom  267 type  1   force =     0.01019347    0.00192702   -0.00752412
     atom  268 type  1   force =     0.00560821    0.00909176   -0.00899833
     atom  269 type  2   force =    -0.01927327    0.01111696    0.01168175
     atom  270 type  2   force =     0.00882309   -0.02247077    0.06101600
     atom  271 type  2   force =    -0.00413550   -0.00038309    0.00197120
     atom  272 type  2   force =    -0.00892358   -0.00427869   -0.00952726
     atom  273 type  1   force =     0.00631388   -0.00037469    0.00304105
     atom  274 type  1   force =    -0.00806989   -0.02173567   -0.03747384
     atom  275 type  1   force =    -0.24115029    0.03063571    0.24541425
     atom  276 type  1   force =     0.11368770   -0.05221231   -0.06012608
     atom  277 type  2   force =    -0.00060737   -0.00062639    0.00024093
     atom  278 type  2   force =    -0.00766282   -0.00334919   -0.03144584
     atom  279 type  2   force =     0.07925064    0.06865893   -0.07425155
     atom  280 type  2   force =     0.01014002   -0.01121086   -0.03230480
     atom  281 type  1   force =     0.23058784    0.13811229    0.19231653
     atom  282 type  1   force =    -0.05156404   -0.00036603   -0.00981427
     atom  283 type  1   force =     0.00096606    0.01387405    0.01368891
     atom  284 type  1   force =     0.00216877   -0.00228798   -0.00399385
     atom  285 type  2   force =    -0.05639896   -0.04669110   -0.12617180
     atom  286 type  2   force =    -0.00186484    0.00347703   -0.01365410
     atom  287 type  2   force =     0.00162596   -0.00548147    0.00342714
     atom  288 type  2   force =     0.00247189   -0.00113840   -0.00015612
     atom  289 type  1   force =     0.25484679    0.18869509   -0.05753378
     atom  290 type  1   force =     0.05480340   -0.01581056    0.00827382
     atom  291 type  1   force =     0.00070864    0.03980709   -0.01547809
     atom  292 type  1   force =     0.00094242   -0.02191371    0.01403947
     atom  293 type  2   force =    -0.05381916   -0.03302055    0.04965422
     atom  294 type  2   force =    -0.00564042    0.00279840    0.02345010
     atom  295 type  2   force =    -0.03013847   -0.03097670   -0.02386036
     atom  296 type  2   force =     0.00059118    0.00356039    0.00406222
     atom  297 type  1   force =    -0.00031067    0.00037609    0.00087877
     atom  298 type  1   force =    -0.00070060   -0.00005872    0.00033160
     atom  299 type  1   force =     0.00125396   -0.01911949    0.01245488
     atom  300 type  1   force =     0.04885854    0.00332500   -0.01418602
     atom  301 type  2   force =    -0.00015073   -0.00057781   -0.00032076
     atom  302 type  2   force =     0.00048692    0.00104936   -0.00054993
     atom  303 type  2   force =     0.00131738   -0.00285200   -0.00110591
     atom  304 type  2   force =    -0.00471192    0.01079175   -0.01365945
     atom  305 type  1   force =    -0.01587924    0.08431460   -0.00057101
     atom  306 type  1   force =    -0.02830331   -0.27003656    0.10709862
     atom  307 type  1   force =    -0.00052863    0.05908400   -0.00242084
     atom  308 type  1   force =    -0.07625880   -0.03633588   -0.02486844
     atom  309 type  2   force =    -0.00194964    0.00515511   -0.01679058
     atom  310 type  2   force =     0.00925822    0.04923894   -0.06803241
     atom  311 type  2   force =     0.00706005   -0.00171667    0.00584416
     atom  312 type  2   force =     0.09308633    0.07421374    0.02377173
     atom  313 type  1   force =    -0.00895466   -0.22097126   -0.20756223
     atom  314 type  1   force =    -0.03858910   -0.02311817    0.07030772
     atom  315 type  1   force =    -0.15621584   -0.09063557   -1.06145035
     atom  316 type  1   force =     0.00436089   -0.04255382    0.03926547
     atom  317 type  2   force =    -0.00250010    0.02027395    0.08045937
     atom  318 type  2   force =    -0.03259686   -0.01676156    0.08019102
     atom  319 type  2   force =     0.20982871    0.16036728    0.88768740
     atom  320 type  2   force =    -0.01739232    0.01678465    0.02394692
     atom  321 type  1   force =    -0.00087912    0.00046759    0.00120140
     atom  322 type  1   force =    -0.00046743    0.00153327    0.00026431
     atom  323 type  1   force =    -0.00868566   -0.00532540    0.00142076
     atom  324 type  1   force =    -0.02176132   -0.00035971    0.00368350
     atom  325 type  2   force =     0.00000453   -0.00070486   -0.00147602
     atom  326 type  2   force =     0.00029318   -0.00001502    0.00000660
     atom  327 type  2   force =     0.00051866   -0.00018386   -0.00038998
     atom  328 type  2   force =    -0.01214303   -0.00905053   -0.00456230
     atom  329 type  1   force =     0.01508219   -0.08492119   -0.04553006
     atom  330 type  1   force =    -0.06411295    0.03931336    0.02952076
     atom  331 type  1   force =     0.10079115   -0.08299182   -0.18918802
     atom  332 type  1   force =     0.00982887    0.02095210    0.04689070
     atom  333 type  2   force =     0.01263114   -0.00450389   -0.02220049
     atom  334 type  2   force =     0.01996478   -0.01719916   -0.01072453
     atom  335 type  2   force =    -0.00407492    0.01874941    0.10720275
     atom  336 type  2   force =    -0.02883125    0.00119990   -0.04089526
     atom  337 type  1   force =     0.10192991   -0.24086259   -0.04794376
     atom  338 type  1   force =     0.04022231    0.29960669    0.08514402
     atom  339 type  1   force =     0.03524407   -0.02239741   -0.03809346
     atom  340 type  1   force =    -0.03339338    0.00283620   -0.00139207
     atom  341 type  2   force =    -0.00393990    0.03860588   -0.02375202
     atom  342 type  2   force =    -0.00895381   -0.00869852    0.03799320
     atom  343 type  2   force =    -0.06730819    0.00050409    0.00752011
     atom  344 type  2   force =     0.00996830   -0.01601302    0.01229188
     atom  345 type  1   force =    -0.00507483    0.00044697    0.01887322
     atom  346 type  1   force =    -0.00166827   -0.00037184    0.00769720
     atom  347 type  1   force =    -0.00114772    0.00035357    0.00350518
     atom  348 type  1   force =     0.00090750   -0.00027812    0.00124363
     atom  349 type  2   force =    -0.00108331    0.00304425    0.00005697
     atom  350 type  2   force =     0.00768572   -0.01088181   -0.00857957
     atom  351 type  2   force =     0.00007355   -0.00133768   -0.00216903
     atom  352 type  2   force =    -0.00030358    0.00011215   -0.00155938
     atom  353 type  1   force =    -0.03713320   -0.16545980   -0.29209104
     atom  354 type  1   force =    -0.14290856    0.23382093    0.16581154
     atom  355 type  1   force =     0.04927874   -0.01563535    0.00334243
     atom  356 type  1   force =    -0.00210012    0.07371552    0.12177876
     atom  357 type  2   force =    -0.00022799    0.00974881    0.08515775
     atom  358 type  2   force =     0.03206185   -0.03652092   -0.01953276
     atom  359 type  2   force =    -0.01007373   -0.00087409   -0.00079833
     atom  360 type  2   force =    -0.04205995   -0.06832562   -0.12385608

     Total force =     2.886267     Total SCF correction =     0.002289


     Computing stress (Cartesian axis) and pressure

          total   stress  (Ry/bohr**3)                   (kbar)     P=       26.27
   0.00013592   0.00000038  -0.00000648           19.99        0.06       -0.95
   0.00000038   0.00017695   0.00007007            0.06       26.03       10.31
  -0.00000648   0.00007007   0.00022292           -0.95       10.31       32.79


     Writing all to output data dir ./espresso.save/
 
     init_run     :    638.01s CPU    652.51s WALL (       1 calls)
     electrons    :  35429.98s CPU  36154.10s WALL (       1 calls)
     forces       :    225.53s CPU    233.71s WALL (       1 calls)
     stress       :   4251.14s CPU   4324.65s WALL (       1 calls)

     Called by init_run:
     wfcinit      :    627.79s CPU    641.95s WALL (       1 calls)
     potinit      :      0.30s CPU      0.34s WALL (       1 calls)
     hinit0       :      0.25s CPU      0.36s WALL (       1 calls)

     Called by electrons:
     c_bands      :  32504.29s CPU  33209.37s WALL (      13 calls)
     sum_band     :   2922.86s CPU   2941.60s WALL (      13 calls)
     v_of_rho     :      2.54s CPU      2.67s WALL (      13 calls)
     mix_rho      :      0.40s CPU      0.52s WALL (      13 calls)

     Called by c_bands:
     init_us_2    :     79.25s CPU     81.13s WALL (     580 calls)
     init_us_2:cp :     79.25s CPU     81.12s WALL (     580 calls)
     cegterg      :  32406.29s CPU  33059.94s WALL (     260 calls)

     Called by *egterg:
     cdiaghg      :    686.95s CPU    707.72s WALL (    1836 calls)
     h_psi        :  23218.29s CPU  23582.42s WALL (    1876 calls)
     g_psi        :     19.51s CPU     20.01s WALL (    1596 calls)

     Called by h_psi:
     h_psi:calbec :   2423.55s CPU   2550.92s WALL (    1876 calls)
     vloc_psi     :  18765.02s CPU  18888.38s WALL (    1876 calls)
     add_vuspsi   :   2008.99s CPU   2067.77s WALL (    1876 calls)

     General routines
     calbec       :   2726.44s CPU   2866.14s WALL (    1976 calls)
     fft          :      2.57s CPU      2.72s WALL (     138 calls)
     ffts         :      0.21s CPU      0.22s WALL (      13 calls)
     fftw         :  21422.23s CPU  21558.44s WALL ( 1984452 calls)
 
     Parallel routines
 
     PWSCF        :     11h15m CPU     11h29m WALL

 
   This run was terminated on:  16:20:37  20Jul2023            

=------------------------------------------------------------------------------=
   JOB DONE.
=------------------------------------------------------------------------------=
